 &FCI NORB=   4,NELEC= 4,MS2=0,
  ORBSYM=1,1,1,1,
  ISYM=1,
 &END
 0.4972849597336663    1    1    1    1
 0.1573819554253785    2    1    2    1
 0.4359320350127423    2    2    1    1
 0.4536261620763926    2    2    2    2
 -0.08156525652625543    3    1    1    1
 0.009805201843504384    3    1    2    2
 0.1078320634949473    3    1    3    1
 0.09800101685106197    3    2    2    1
 0.137282839931948    3    2    3    2
 0.445994032115078    3    3    1    1
 0.4477642091604964    3    3    2    2
 -0.006862553278793336    3    3    3    1
 0.4674057435979796    3    3    3    3
 -0.04308407232010905    4    1    2    1
 0.05296046723720332    4    1    3    2
 0.09706955184930163    4    1    4    1
 -0.08424764189088849    4    2    1    1
 -0.004056436404795353    4    2    2    2
 0.09851292568661524    4    2    3    1
 -0.002814426332425261    4    2    3    3
 0.1046452787095077    4    2    4    2
 0.150633379340662    4    3    2    1
 0.09936654029335099    4    3    3    2
 -0.04096948962938086    4    3    4    1
 0.1624643926918379    4    3    4    3
 0.5229523468633256    4    4    1    1
 0.4639452481467852    4    4    2    2
 -0.08590733977808634    4    4    3    1
 0.4802183585197586    4    4    3    3
 -0.09353804145030306    4    4    4    2
 0.581046018256769    4    4    4    4
 -1.83510881962873    1    1  0  0
 -1.550652448035424    2    2  0  0
 0.1599558696906864    3    1  0  0
 -1.245801630436727    3    3  0  0
 0.1294676478661215    4    2  0  0
 -0.9063250723188582    4    4  0  0
 2.29310124732  0  0  0  0
