 &FCI NORB=   7,NELEC=10,MS2=0,
  ORBSYM=1,1,1,1,1,1,1,
  ISYM=1,
 &END
 -2.277612075219441    1    1    1    1
 -0.345156050406986    2    1    1    1
 0.0584155380178664    2    1    2    1
 -3.338393468617478    2    2    1    1
 0.05935735552640289    2    2    2    1
 -0.9354517539875007    2    2    2    2
 0.01163283916700657    3    1    3    1
 0.01814630400176716    3    2    3    1
 0.1394665706074799    3    2    3    2
 -3.391550099939526    3    3    1    1
 0.06780564306021673    3    3    2    1
 -0.8720400966371447    3    3    2    2
 -0.7402011753111534    3    3    3    3
 -0.1612581838652251    4    1    1    1
 0.02425033837090108    4    1    2    1
 0.01697739184949233    4    1    2    2
 0.02629351902023814    4    1    3    3
 0.02703373311481446    4    1    4    1
 0.09218117259619801    4    2    1    1
 -0.009509081716318125    4    2    2    1
 -0.05154840493601456    4    2    2    2
 -0.05844535480153462    4    2    3    3
 0.01641758348706781    4    2    4    1
 0.1246503402107776    4    2    4    2
 0.00411887447003051    4    3    3    1
 -0.01845679218199905    4    3    3    2
 0.05150394336615383    4    3    4    3
 -3.289326287290554    4    4    1    1
 0.0595875222166017    4    4    2    1
 -0.9093924875313883    4    4    2    2
 -0.8320367149490142    4    4    3    3
 0.04254732118228892    4    4    4    1
 0.04400741902468545    4    4    4    2
 -0.7372028059934743    4    4    4    4
 0.02601019808913687    5    1    5    1
 0.03247709406660702    5    2    5    1
 0.1447795854225365    5    2    5    2
 0.02891686845816826    5    3    5    3
 0.01415962720424908    5    4    5    1
 0.0501189826335436    5    4    5    2
 0.05519272449785763    5    4    5    4
 -3.198182581750873    5    5    1    1
 0.06070278369069586    5    5    2    1
 -0.8867984099682661    5    5    2    2
 -0.8578091281957472    5    5    3    3
 0.02752339966265155    5    5    4    1
 0.02407426485666438    5    5    4    2
 -0.8323142459715481    5    5    4    4
 -0.723814056205355    5    5    5    5
 -0.1784821398577423    6    1    1    1
 0.03286255150174944    6    1    2    1
 0.03728081310046079    6    1    2    2
 0.03738059058821627    6    1    3    3
 -0.0004902259467933535    6    1    4    1
 -0.02128413935840982    6    1    4    2
 0.01731261265899562    6    1    4    4
 0.03078272545018463    6    1    5    5
 0.03029820460987795    6    1    6    1
 0.1491203092570325    6    2    1    1
 -0.005750103989440194    6    2    2    1
 -0.002747236234214218    6    2    2    2
 -0.06484926141999238    6    2    3    3
 -0.01898545678293736    6    2    4    1
 -0.02116346369834811    6    2    4    2
 -0.07434794657038175    6    2    4    4
 0.007323076098762649    6    2    5    5
 0.01013374429102719    6    2    6    1
 0.1026087774967621    6    2    6    2
 0.003750616375189125    6    3    3    1
 -0.02796205927565944    6    3    3    2
 0.02805112655639776    6    3    4    3
 0.06205072808459708    6    3    6    3
 -0.1203674903836011    6    4    1    1
 0.003218114290024869    6    4    2    1
 0.02265188130610024    6    4    2    2
 0.07637429797236789    6    4    3    3
 -0.0003365388269095537    6    4    4    1
 -0.05336026776724986    6    4    4    2
 -0.005448825576225447    6    4    4    4
 -0.007411294732256074    6    4    5    5
 0.00311124184021083    6    4    6    1
 -0.05681858080192494    6    4    6    2
 0.08739741884451392    6    4    6    4
 0.01416332406302662    6    5    5    1
 0.05424701192975814    6    5    5    2
 -0.0008891899271190298    6    5    5    4
 0.03721364729640535    6    5    6    5
 -3.282402754749009    6    6    1    1
 0.06511140001383166    6    6    2    1
 -0.8067791363232368    6    6    2    2
 -0.7092651382290651    6    6    3    3
 0.0128802635164453    6    6    4    1
 -0.1050403011146264    6    6    4    2
 -0.7775231227486031    6    6    4    4
 -0.8007169303276728    6    6    5    5
 0.04624242801821336    6    6    6    1
 -0.04154106610828302    6    6    6    2
 0.0763269919389626    6    6    6    4
 -0.5891140928042934    6    6    6    6
 0.01487644296914659    7    1    3    1
 0.02183782578322623    7    1    3    2
 0.005395855535877737    7    1    4    3
 0.004230522037024009    7    1    6    3
 0.01906644583883523    7    1    7    1
 0.01397309986997527    7    2    3    1
 0.0410314579497759    7    2    3    2
 0.03787480241784262    7    2    4    3
 0.03504268737819051    7    2    6    3
 0.01702875162729773    7    2    7    1
 0.0620691909172376    7    2    7    2
 0.1824724547795606    7    3    1    1
 -0.007390518424808711    7    3    2    1
 -0.04050969904110535    7    3    2    2
 -0.08687133314501901    7    3    3    3
 0.0007123194965745565    7    3    4    1
 0.08605745496601969    7    3    4    2
 -0.03292722794079045    7    3    4    4
 0.01334540527565556    7    3    5    5
 -0.007032261871545193    7    3    6    1
 0.07259502990299968    7    3    6    2
 -0.09353621881596251    7    3    6    4
 -0.1355913251815269    7    3    6    6
 0.1592391593452093    7    3    7    3
 0.01001149289938962    7    4    3    1
 0.08048209672949883    7    4    3    2
 -0.003986308539555779    7    4    4    3
 -0.04467637674109527    7    4    6    3
 0.01264658678533243    7    4    7    1
 0.01391588029254335    7    4    7    2
 0.07462365099648062    7    4    7    4
 0.02347847104652825    7    5    5    3
 0.02317928653149649    7    5    7    5
 0.008196604423990441    7    6    3    1
 0.08891299732284012    7    6    3    2
 -0.05129670655733552    7    6    4    3
 -0.05373883892422932    7    6    6    3
 0.01000432199593412    7    6    7    1
 -0.01341469835463426    7    6    7    2
 0.06053815508128776    7    6    7    4
 0.107568298227982    7    6    7    6
 -3.281685418230896    7    7    1    1
 0.0641145200334582    7    7    2    1
 -0.8205825143483371    7    7    2    2
 -0.6838208873183708    7    7    3    3
 0.02839454083921769    7    7    4    1
 -0.04646291396699137    7    7    4    2
 -0.7519620039768806    7    7    4    4
 -0.7956297951562733    7    7    5    5
 0.03292805183314368    7    7    6    1
 -0.08226641084208247    7    7    6    2
 0.08629220343670981    7    7    6    4
 -0.6327354260930167    7    7    6    6
 -0.09977083052121513    7    7    7    3
 -0.5987512200089811    7    7    7    7
 -1.052577558190952    1    1  0  0
 -0.09579760870340816    2    1  0  0
 -0.1517308756574203    2    2  0  0
 -0.1436955331412692    3    3  0  0
 -0.04709180704971571    4    1  0  0
 0.002734421200867464    4    2  0  0
 -0.1584004974814381    4    4  0  0
 -0.2042608729548769    5    5  0  0
 -0.05520404611086444    6    1  0  0
 -0.02595788215426661    6    2  0  0
 0.0684622842140811    6    4  0  0
 -0.08098850912207753    6    6  0  0
 -0.08249046958228426    7    3  0  0
 -0.07650259407586996    7    7  0  0
 8.841020169010916  0  0  0  0
