 &FCI NORB=  10,NELEC=14,MS2=0,
  ORBSYM=1,1,1,1,1,1,1,1,1,1,
  ISYM=1,
 &END
 -1.502406376613981    1    1    1    1
 -1.572058100541698    2    2    1    1
 -1.644938886008037    2    2    2    2
 -1.5720581005417    3    3    1    1
 -1.644938886008039    3    3    2    2
 -1.64493888600804    3    3    3    3
 -1.606700300904629    4    4    1    1
 -1.681187102568373    4    4    2    2
 -1.681187102568375    4    4    3    3
 -1.718234092393164    4    4    4    4
 -1.611764624093016    5    5    1    1
 -1.686486208333625    5    5    2    2
 -1.686486208333627    5    5    3    3
 -1.723649970358884    5    5    4    4
 -1.729082919184895    5    5    5    5
 -1.611764624093018    6    6    1    1
 -1.686486208333626    6    6    2    2
 -1.686486208333628    6    6    3    3
 -1.723649970358885    6    6    4    4
 -1.729082919184897    6    6    5    5
 -1.729082919184898    6    6    6    6
 -1.627834994236577    7    7    1    1
 -1.703301602594547    7    7    2    2
 -1.703301602594549    7    7    3    3
 -1.740835912156801    7    7    4    4
 -1.746323031112433    7    7    5    5
 -1.746323031112434    7    7    6    6
 -1.763735038474237    7    7    7    7
 -1.67947063827552    8    8    1    1
 -1.757331080738171    8    8    2    2
 -1.757331080738173    8    8    3    3
 -1.796055995155749    8    8    4    4
 -1.801717167944967    8    8    5    5
 -1.801717167944969    8    8    6    6
 -1.819681491860549    8    8    7    7
 -1.877402591425698    8    8    8    8
 -2.934230906495735    9    9    1    1
 -3.07026217221761    9    9    2    2
 -3.070262172217614    9    9    3    3
 -3.137919110151419    9    9    4    4
 -3.147809838686091    9    9    5    5
 -3.147809838686094    9    9    6    6
 -3.179195605871355    9    9    7    7
 -3.280041092801024    9    9    8    8
 -5.730613998084027    9    9    9    9
 -2.934726394764755   10   10    1    1
 -3.070780631376971   10   10    2    2
 -3.070780631376974   10   10    3    3
 -3.138448994185008   10   10    4    4
 -3.14834139291542   10   10    5    5
 -3.148341392915422   10   10    6    6
 -3.179732460051489   10   10    7    7
 -3.280594976232552   10   10    8    8
 -5.731581696980541   10   10    9    9
 -5.732549559287322   10   10   10   10
 -0.7512031883069905    1    1  0  0
 -0.8224694430040184    2    2  0  0
 -0.8224694430040201    3    3  0  0
 -0.8591170461965821    4    4  0  0
 -0.8645414595924477    5    5  0  0
 -0.864541459592449    6    6  0  0
 -0.8818675192371183    7    7  0  0
 -0.9387012957128489    8    8  0  0
 -2.865306999042013    9    9  0  0
 -2.866274779643661   10   10  0  0
 21.6080694459  0  0  0  0
