 &FCI NORB=   7,NELEC=10,MS2=0,
  ORBSYM=1,1,1,1,1,1,1,
  ISYM=1,
 &END
 -2.017336725181219    1    1    1    1
 -2.015960582679297    2    2    1    1
 -2.024155457171025    2    2    2    2
 -2.023921092202499    3    3    1    1
 -2.024448500520442    3    3    2    2
 -2.121861255111473    3    3    3    3
 -4.426646592282907    4    4    1    1
 -2.017577900696402    4    4    2    2
 -2.023335889443488    4    4    3    3
 -2.023823006193958    4    4    4    4
 -2.023051062892739    5    5    1    1
 -2.120375727437575    5    5    2    2
 -4.429703165938119    5    5    3    3
 -2.029037428508739    5    5    4    4
 -2.0309875276103    5    5    5    5
 -2.030446946122193    6    6    1    1
 -2.127414466299616    6    6    2    2
 -4.443235113985926    6    6    3    3
 -2.030954334744879    6    6    4    4
 -2.03103267774403    6    6    5    5
 -2.128754917510444    6    6    6    6
 -4.45266388127994    7    7    1    1
 -2.040090590412426    7    7    2    2
 -2.135079181584526    7    7    3    3
 -4.450587806154133    7    7    4    4
 -2.237397748800788    7    7    5    5
 -4.663744730547075    7    7    6    6
 -9.723366122079272    7    7    7    7
 -1.008668362590609    1    1  0  0
 -1.012077728585513    2    2  0  0
 -1.060930627555736    3    3  0  0
 -1.011911503096979    4    4  0  0
 -1.01549376380515    5    5  0  0
 -1.064377458755222    6    6  0  0
 -4.861683061039636    7    7  0  0
 2.947006723003639  0  0  0  0
