 &FCI NORB=  10,NELEC=14,MS2=0,
  ORBSYM=1,1,1,1,1,1,1,1,1,1,
  ISYM=1,
 &END
 -1.515602451277611    1    1    1    1
 -1.561042859640863    2    2    1    1
 -1.607845650804748    2    2    2    2
 -1.561042859640865    3    3    1    1
 -1.60784565080475    3    3    2    2
 -1.607845650804753    3    3    3    3
 -1.587674917393764    4    4    1    1
 -1.635276184159761    4    4    2    2
 -1.635276184159764    4    4    3    3
 -1.663174694126686    4    4    4    4
 -1.587674917393766    5    5    1    1
 -1.635276184159763    5    5    2    2
 -1.635276184159765    5    5    3    3
 -1.663174694126687    5    5    4    4
 -1.663174694126689    5    5    5    5
 -1.588758545240697    6    6    1    1
 -1.636392301062011    6    6    2    2
 -1.636392301062014    6    6    3    3
 -1.664309852459872    6    6    4    4
 -1.664309852459874    6    6    5    5
 -1.665445785567017    6    6    6    6
 -1.615229876747821    7    7    1    1
 -1.663657289317703    7    7    2    2
 -1.663657289317705    7    7    3    3
 -1.692039993057393    7    7    4    4
 -1.692039993057394    7    7    5    5
 -1.693194852679167    7    7    6    6
 -1.721406264907722    7    7    7    7
 -1.652726599923909    8    8    1    1
 -1.702278229739526    8    8    2    2
 -1.702278229739529    8    8    3    3
 -1.731319823214006    8    8    4    4
 -1.731319823214009    8    8    5    5
 -1.73250149230245    8    8    6    6
 -1.761367817822277    8    8    7    7
 -1.802257057445018    8    8    8    8
 -2.931495465032252    9    9    1    1
 -3.019386818687555    9    9    2    2
 -3.01938681868756    9    9    3    3
 -3.070898847096652    9    9    4    4
 -3.070898847096655    9    9    5    5
 -3.072994812378569    9    9    6    6
 -3.12419596225866    9    9    7    7
 -3.196722549855302    9    9    8    8
 -5.670131804194718    9    9    9    9
 -2.932046968047463   10   10    1    1
 -3.019954856726317   10   10    2    2
 -3.019954856726322   10   10    3    3
 -3.071476576106908   10   10    4    4
 -3.071476576106911   10   10    5    5
 -3.073572935703327   10   10    6    6
 -3.124783718069252   10   10    7    7
 -3.197323950111952   10   10    8    8
 -5.671198527586911   10   10    9    9
 -5.672265451662059   10   10   10   10
 -0.7578012256388055    1    1  0  0
 -0.8039228254023738    2    2  0  0
 -0.8039228254023766    3    3  0  0
 -0.8315873470633429    4    4  0  0
 -0.8315873470633446    5    5  0  0
 -0.8327228927835083    6    6  0  0
 -0.860703132453861    7    7  0  0
 -0.9011285287225091    8    8  0  0
 -2.835065902097359    9    9  0  0
 -2.83613272583103   10   10  0  0
 18.5212023822  0  0  0  0
