 &FCI NORB=  10,NELEC=14,MS2=0,
  ORBSYM=1,1,1,1,1,1,1,1,1,1,
  ISYM=1,
 &END
 2.828279140297011    1    1    1    1
 6.743377802972242e-06    2    1    1    1
 3.895480262687118    2    1    2    1
 2.829238650460738    2    2    1    1
 -6.74126746872097e-06    2    2    2    1
 2.830198862742683    2    2    2    2
 -1.022426198356381e-06    3    1    1    1
 -0.3997009993074638    3    1    2    1
 3.610461275089032e-07    3    1    2    2
 0.06060762593432728    3    1    3    1
 -0.3579562956064735    3    2    1    1
 3.454707824640196e-07    3    2    2    1
 -0.3581155483965747    3    2    2    2
 0.06065209367183788    3    2    3    2
 -0.06607604122573019    3    3    1    1
 3.517223752119047e-10    3    3    2    1
 -0.06607676267094087    3    3    2    2
 9.961032051800938e-10    3    3    3    1
 0.02494274039720475    3    3    3    2
 -0.03844615634569415    3    3    3    3
 0.3696509778255567    4    1    1    1
 3.584757025850408e-07    4    1    2    1
 0.3698026964588971    4    1    2    2
 -1.084654534915316e-07    4    1    3    1
 -0.06266903877720138    4    1    3    2
 -0.02610860955048649    4    1    3    3
 0.06534476925287042    4    1    4    1
 3.847451248897373e-07    4    2    1    1
 0.4144052131525554    4    2    2    1
 -1.049896841695813e-06    4    2    2    2
 -0.06266217847669692    4    2    3    1
 1.084586413299894e-07    4    2    3    2
 1.027886948624561e-08    4    2    3    3
 0.06539256630579598    4    2    4    2
 -1.230369123872625e-06    4    3    1    1
 -0.710854586424338    4    3    2    1
 1.230334460033956e-06    4    3    2    2
 0.01808889505537777    4    3    3    1
 -0.0182642692568692    4    3    4    2
 0.4303084753950298    4    3    4    3
 -0.04404948484296423    4    4    1    1
 3.517223752119047e-10    4    4    2    1
 -0.04400530804228708    4    4    2    2
 -9.96103205180107e-10    4    4    3    1
 0.022582130657527    4    4    3    2
 -0.05144787437864551    4    4    3    3
 -0.02577919127099873    4    4    4    1
 9.939679101856508e-09    4    4    4    2
 -0.03324390066485838    4    4    4    4
 -1.342768802240428e-07    5    1    1    1
 -0.04746378907135468    5    1    2    1
 3.00763237695767e-08    5    1    2    2
 0.006251799791755434    5    1    3    1
 -1.736675940907768e-08    5    1    3    3
 -0.00998774730046182    5    1    4    2
 -0.001845062291808449    5    1    4    3
 -1.736675940907768e-08    5    1    4    4
 0.0211538401815212    5    1    5    1
 -0.04320543934624956    5    2    1    1
 4.115376337073032e-08    5    2    2    1
 -0.04314546530667723    5    2    2    2
 0.006250311225303632    5    2    3    2
 -0.009959872876341428    5    2    4    1
 0.01176891576604812    5    2    4    4
 0.02140761799718642    5    2    5    2
 0.007192079003143642    5    3    1    1
 0.007303271362402722    5    3    2    2
 -0.003839581831370248    5    3    3    2
 -0.04041006752930587    5    3    3    3
 -0.00127567006945969    5    3    4    1
 0.03007255364116638    5    3    4    4
 2.591583738047162e-08    5    3    5    1
 0.02991345582170498    5    3    5    2
 0.1640908942207366    5    3    5    3
 -3.42097364524907e-07    5    4    1    1
 -0.1976580331112439    5    4    2    1
 3.42118353790378e-07    5    4    2    2
 0.005691063015489758    5    4    3    1
 3.49821091184909e-12    5    4    3    3
 -0.0008012766111418884    5    4    4    2
 0.1369223850746135    5    4    4    3
 3.49821091184909e-12    5    4    4    4
 -0.02822917476429704    5    4    5    1
 2.444185859347846e-08    5    4    5    2
 0.1709103174916886    5    4    5    4
 -0.03018851470664741    5    5    1    1
 3.517223752119047e-10    5    5    2    1
 -0.03016267298286834    5    5    2    2
 5.806477805859406e-09    5    5    3    1
 0.03046870940870156    5    5    3    2
 -0.0336986710658808    5    5    4    1
 1.682797207939865e-08    5    5    4    2
 0.006562245661173804    5    5    4    4
 -1.736675940907768e-08    5    5    5    1
 0.01206717372784031    5    5    5    2
 0.00801918480174078    5    5    5    3
 3.49821091184909e-12    5    5    5    4
 0.1101128462533203    5    5    5    5
 0.02169168070109236    6    1    6    1
 0.02176672852414022    6    2    6    2
 2.643145794537682e-08    6    3    6    1
 0.03050171734221306    6    3    6    2
 0.1525088452428872    6    3    6    3
 -0.03008170994914938    6    4    6    1
 2.60402196322599e-08    6    4    6    2
 0.1434606374264522    6    4    6    4
 0.003417896330810996    6    5    6    2
 0.009561627988712827    6    5    6    3
 0.04277979016430742    6    5    6    5
 3.517223752119047e-10    6    6    2    1
 5.744678186727566e-09    6    6    3    1
 0.03040088552176182    6    6    3    2
 0.01926721156559208    6    6    3    3
 -0.0328553789379937    6    6    4    1
 1.610054053040339e-08    6    6    4    2
 0.02386746170611631    6    6    4    4
 -1.736675940907768e-08    6    6    5    1
 0.006364495041026036    6    6    5    2
 -0.002842976149071617    6    6    5    3
 3.49821091184909e-12    6    6    5    4
 0.04277979016430833    6    6    5    5
 0.1446206235306695    6    6    6    6
 0.02169168070109234    7    1    7    1
 0.0217667285241402    7    2    7    2
 2.643050492216014e-08    7    3    7    1
 0.03050171734221304    7    3    7    2
 0.1525088452428871    7    3    7    3
 -0.03008170994914938    7    4    7    1
 2.604119817829918e-08    7    4    7    2
 0.1434606374264521    7    4    7    4
 0.003417896330810994    7    5    7    2
 0.00956162798871282    7    5    7    3
 0.0427797901643074    7    5    7    5
 0.04066653620856154    7    6    7    6
 3.517223752119047e-10    7    7    2    1
 5.745049198798628e-09    7    7    3    1
 0.03040088552176182    7    7    3    2
 0.01926721156559119    7    7    3    3
 -0.0328553789379937    7    7    4    1
 1.610016914110349e-08    7    7    4    2
 0.02386746170611564    7    7    4    4
 -1.736675940907768e-08    7    7    5    1
 0.006364495041026038    7    7    5    2
 -0.002842976149071582    7    7    5    3
 3.49821091184909e-12    7    7    5    4
 0.04277979016430744    7    7    5    5
 0.06328755111354534    7    7    6    6
 0.1446206235306677    7    7    7    7
 -3.83133825643536e-08    8    1    6    1
 -0.02220982404245028    8    1    6    2
 -0.03116402477783824    8    1    6    3
 2.634074912684352e-08    8    1    6    4
 -0.003483300959180762    8    1    6    5
 0.001033332372692931    8    1    7    2
 0.001449934749811377    8    1    7    3
 0.0001620637623276153    8    1    7    5
 0.0227111797071133    8    1    8    1
 -0.02206221817686386    8    2    6    1
 3.831302988273964e-08    8    2    6    2
 2.694797790392636e-08    8    2    6    3
 0.03046239394008388    8    2    6    4
 0.001026464874822696    8    2    7    1
 -0.001417290733499249    8    2    7    4
 0.02248801778741266    8    2    8    2
 -0.02937736916113356    8    3    6    1
 2.540091143912218e-08    8    3    6    2
 0.1394175951193585    8    3    6    4
 0.001366808963489708    8    3    7    1
 -0.006486531099232212    8    3    7    4
 2.579878357314496e-08    8    3    8    1
 0.02980058739747612    8    3    8    2
 0.1368989571106225    8    3    8    3
 2.741335962520078e-08    8    4    6    1
 0.03170033744869792    8    4    6    2
 0.1545771797915064    8    4    6    3
 0.01944814522684852    8    4    6    5
 -0.001474887187238413    8    4    7    2
 -0.007191844638338566    8    4    7    3
 -0.000904842740461394    8    4    7    5
 -0.032462807403744    8    4    8    1
 2.812865866659946e-08    8    4    8    2
 0.1595747465322373    8    4    8    4
 -0.004118345505164758    8    5    6    1
 0.02449797068122798    8    5    6    4
 0.0001916097905272583    8    5    7    1
 -0.001139790487390208    8    5    7    4
 0.004253446785560134    8    5    8    2
 0.01745423289216594    8    5    8    3
 0.04102524744815692    8    5    8    5
 -1.265382542904848e-06    8    6    1    1
 -0.7310921346203773    8    6    2    1
 1.265375640398387e-06    8    6    2    2
 0.01178261493926792    8    6    3    1
 -6.902506461165686e-13    8    6    3    3
 -0.01179483529516006    8    6    4    2
 0.4521152835154792    8    6    4    3
 -6.902506461165686e-13    8    6    4    4
 -0.002185390253426692    8    6    5    1
 0.1363797639643431    8    6    5    4
 -6.902506461165686e-13    8    6    5    5
 -6.902506461165686e-13    8    6    6    6
 -6.902506461165686e-13    8    6    7    7
 0.5313400331369892    8    6    8    6
 5.887311734233201e-08    8    7    1    1
 0.0340147300888327    8    7    2    1
 -5.887272131541631e-08    8    7    2    2
 -0.0005481969343138322    8    7    3    1
 6.600448595054095e-14    8    7    3    3
 0.0005487654975462574    8    7    4    2
 -0.02103507698903162    8    7    4    3
 6.600448595054095e-14    8    7    4    4
 0.0001016772799062782    8    7    5    1
 -0.0063451932268901    8    7    5    4
 6.600448595054095e-14    8    7    5    5
 6.600448595054095e-14    8    7    6    6
 6.600448595054095e-14    8    7    7    7
 -0.02282443651279092    8    7    8    6
 0.0418272608365162    8    7    8    7
 0.008802836887122023    8    8    1    1
 3.517223752119047e-10    8    8    2    1
 0.008805344485265376    8    8    2    2
 5.322907773253685e-09    8    8    3    1
 0.02990141921792736    8    8    3    2
 0.01698752460279307    8    8    3    3
 -0.03246280740374398    8    8    4    1
 1.574966675005357e-08    8    8    4    2
 0.02455801380698475    8    8    4    4
 -1.736675940907768e-08    8    8    5    1
 0.006918230816949034    8    8    5    2
 0.002897867985018393    8    8    5    3
 3.49821091184909e-12    8    8    5    4
 0.04102524744815694    8    8    5    5
 0.1455096398384434    8    8    6    6
 -0.00385198425266227    8    8    7    6
 0.06289662596089163    8    8    7    7
 -6.902506461165686e-13    8    8    8    6
 6.600448595054095e-14    8    8    8    7
 0.1474134043616304    8    8    8    8
 -0.001033332372692934    9    1    6    2
 -0.001449934749811381    9    1    6    3
 -0.0001620637623276157    9    1    6    5
 -3.831336644831878e-08    9    1    7    1
 -0.02220982404245028    9    1    7    2
 -0.03116402477783822    9    1    7    3
 2.63407114954667e-08    9    1    7    4
 -0.00348330095918076    9    1    7    5
 0.0227111797071133    9    1    9    1
 -0.001026464874822699    9    2    6    1
 0.001417290733499253    9    2    6    4
 -0.02206221817686384    9    2    7    1
 3.831304127968724e-08    9    2    7    2
 2.694796682900798e-08    9    2    7    3
 0.03046239394008386    9    2    7    4
 0.02248801778741266    9    2    9    2
 -0.001366808963489712    9    3    6    1
 0.006486531099232232    9    3    6    4
 -0.02937736916113356    9    3    7    1
 2.54009003691722e-08    9    3    7    2
 0.1394175951193584    9    3    7    4
 2.579974405278254e-08    9    3    9    1
 0.02980058739747612    9    3    9    2
 0.1368989571106224    9    3    9    3
 0.001474887187238418    9    4    6    2
 0.007191844638338586    9    4    6    3
 0.0009048427404613966    9    4    6    5
 2.74133219845132e-08    9    4    7    1
 0.0317003374486979    9    4    7    2
 0.1545771797915063    9    4    7    3
 0.01944814522684851    9    4    7    5
 -0.032462807403744    9    4    9    1
 2.812767246564126e-08    9    4    9    2
 0.1595747465322373    9    4    9    4
 -0.0001916097905272588    9    5    6    1
 0.001139790487390211    9    5    6    4
 -0.004118345505164756    9    5    7    1
 0.02449797068122798    9    5    7    4
 0.004253446785560134    9    5    9    2
 0.01745423289216593    9    5    9    3
 0.04102524744815692    9    5    9    5
 -5.88730353114557e-08    9    6    1    1
 -0.0340147300888328    9    6    2    1
 5.887280334456126e-08    9    6    2    2
 0.0005481969343138346    9    6    3    1
 -0.0005487654975462596    9    6    4    2
 0.02103507698903168    9    6    4    3
 -0.0001016772799062786    9    6    5    1
 0.006345193226890116    9    6    5    4
 0.02282443651279098    9    6    8    6
 0.0397034052767367    9    6    8    7
 0.04182726083651622    9    6    9    6
 -1.265382304157259e-06    9    7    1    1
 -0.7310921346203768    9    7    2    1
 1.265375879098583e-06    9    7    2    2
 0.01178261493926792    9    7    3    1
 -6.425058675573684e-13    9    7    3    3
 -0.01179483529516005    9    7    4    2
 0.452115283515479    9    7    4    3
 -6.425058675573684e-13    9    7    4    4
 -0.00218539025342669    9    7    5    1
 0.136379763964343    9    7    5    4
 -6.425058675573684e-13    9    7    5    5
 -6.425058675573684e-13    9    7    6    6
 -6.425058675573684e-13    9    7    7    7
 0.4498093670237356    9    7    8    6
 -0.0228244365127909    9    7    8    7
 -6.425058675573684e-13    9    7    8    8
 0.02282443651279096    9    7    9    6
 0.5313400331369889    9    7    9    7
 0.003851984252662252    9    8    6    6
 0.0413065069387753    9    8    7    6
 -0.003851984252662296    9    8    7    7
 0.04239654532324058    9    8    9    8
 0.008802836887122023    9    9    1    1
 3.517223752119047e-10    9    9    2    1
 0.008805344485265376    9    9    2    2
 5.322533847473868e-09    9    9    3    1
 0.0299014192179274    9    9    3    2
 0.01698752460279263    9    9    3    3
 -0.03246280740374402    9    9    4    1
 1.575004105852881e-08    9    9    4    2
 0.02455801380698475    9    9    4    4
 -1.736675940907768e-08    9    9    5    1
 0.006918230816949041    9    9    5    2
 0.002897867985018374    9    9    5    3
 3.49821091184909e-12    9    9    5    4
 0.04102524744815672    9    9    5    5
 0.06289662596089252    9    9    6    6
 0.003851984252662284    9    9    7    6
 0.1455096398384426    9    9    7    7
 -6.902506461165686e-13    9    9    8    6
 6.600448595054095e-14    9    9    8    7
 0.06262031371514887    9    9    8    8
 -6.425058675573684e-13    9    9    9    7
 0.1474134043616302    9    9    9    9
 0.05653130211797077   10    1    1    1
 5.992889014527694e-08   10    1    2    1
 0.05664367717404295   10    1    2    2
 -0.01145303272550603   10    1    3    2
 -0.01057444268292833   10    1    3    3
 0.008068719689668191   10    1    4    1
 0.002540827840200616   10    1    4    4
 3.63574509280466e-08   10    1    5    1
 0.02115912993256778   10    1    5    2
 0.03286445889301388   10    1    5    3
 -2.758075397655346e-08   10    1    5    4
 0.0006800172801263811   10    1    5    5
 -0.005612437577413951   10    1    6    6
 -0.005612437577413951   10    1    7    7
 -0.00491390946831634   10    1    8    8
 -0.00491390946831634   10    1    9    9
 0.02620285470981692   10    1   10    1
 6.735365262616165e-08   10    2    1    1
 0.06913306275529624   10    2    2    1
 -1.720555270452422e-07   10    2    2    2
 -0.01148794614056691   10    2    3    1
 -1.047018744190805e-08   10    2    3    3
 0.008091934353917293   10    2    4    2
 -0.007764511246108364   10    2    4    3
 -1.047018744190805e-08   10    2    4    4
 0.02085177854505522   10    2    5    1
 -3.63553920313021e-08   10    2    5    2
 -2.841877157354234e-08   10    2    5    3
 -0.03189670833576456   10    2    5    4
 -1.047018744190805e-08   10    2    5    5
 -1.047018744190805e-08   10    2    6    6
 -1.047018744190805e-08   10    2    7    7
 -0.006154112562051356   10    2    8    6
 0.0002863257143959938   10    2    8    7
 -1.047018744190805e-08   10    2    8    8
 -0.0002863257143959946   10    2    9    6
 -0.006154112562051354   10    2    9    7
 -1.047018744190805e-08   10    2    9    9
 0.02585820053324654   10    2   10    2
 -2.08052236850299e-07   10    3    1    1
 -0.1201981431802379   10    3    2    1
 2.08027306850469e-07   10    3    2    2
 0.001319451954331057   10    3    3    1
 -2.492999983000387e-12   10    3    3    3
 -0.006476218354992148   10    3    4    2
 0.05458651251571862   10    3    4    3
 -2.492999983000387e-12   10    3    4    4
 0.02856623166578876   10    3    5    1
 -2.469933488148144e-08   10    3    5    2
 -0.114079067245084   10    3    5    4
 -2.492999983000387e-12   10    3    5    5
 -2.492999983000387e-12   10    3    6    6
 -2.492999983000387e-12   10    3    7    7
 0.06149288310484068   10    3    8    6
 -0.002861012616804314   10    3    8    7
 -2.492999983000387e-12   10    3    8    8
 0.002861012616804322   10    3    9    6
 0.06149288310484066   10    3    9    7
 -2.492999983000387e-12   10    3    9    9
 2.594896949156022e-08   10    3   10    1
 0.02996738909488568   10    3   10    2
 0.1441444785733174   10    3   10    3
 0.00438702008959624   10    4    1    1
 0.004277300259074636   10    4    2    2
 0.0006649625340095068   10    4    3    2
 0.01788740266693246   10    4    3    3
 0.004654360728314464   10    4    4    1
 -0.04703621291344857   10    4    4    4
 -2.70791766272548e-08   10    4    5    1
 -0.03131354209540666   10    4    5    2
 -0.1559583373143946   10    4    5    3
 -0.04465849814354168   10    4    5    5
 -0.008601615969110908   10    4    6    6
 -0.008601615969110936   10    4    7    7
 -0.01285187881989003   10    4    8    8
 -0.01285187881989004   10    4    9    9
 -0.03355871382002794   10    4   10    1
 2.90718692698338e-08   10    4   10    2
 0.1562344335527227   10    4   10    4
 1.218399669817413e-06   10    5    1    1
 0.7039417547913406   10    5    2    1
 -1.218374411344286e-06   10    5    2    2
 -0.01149484141755287   10    5    3    1
 4.209745521046372e-12   10    5    3    3
 0.01145554881135505   10    5    4    2
 -0.4293539009215696   10    5    4    3
 4.209745521046372e-12   10    5    4    4
 0.002444296839023706   10    5    5    1
 -0.1436213562205067   10    5    5    4
 4.209745521046372e-12   10    5    5    5
 4.209745521046372e-12   10    5    6    6
 4.209745521046372e-12   10    5    7    7
 -0.4283822071590108   10    5    8    6
 0.01993087390953589   10    5    8    7
 4.209745521046372e-12   10    5    8    8
 -0.01993087390953594   10    5    9    6
 -0.4283822071590108   10    5    9    7
 4.209745521046372e-12   10    5    9    9
 0.006557196787385338   10    5   10    2
 -0.0564491717248102   10    5   10    3
 0.4848402650501932   10    5   10    5
 -0.004369257061315566   10    6    6    1
 0.01473579640731005   10    6    6    4
 0.0043458832736974   10    6    8    2
 0.02118737454689792   10    6    8    3
 -0.03702320665457832   10    6    8    5
 0.0002021961932734354   10    6    9    2
 0.000985761974963602   10    6    9    3
 -0.001722538544382611   10    6    9    5
 0.0440829373870619   10    6   10    6
 -0.004369257061315564   10    7    7    1
 0.01473579640731005   10    7    7    4
 -0.0002021961932734348   10    7    8    2
 -0.0009857619749635991   10    7    8    3
 0.001722538544382606   10    7    8    5
 0.0043458832736974   10    7    9    2
 0.0211873745468979   10    7    9    3
 -0.0370232066545783   10    7    9    5
 0.04408293738706188   10    7   10    7
 0.00477964502543505   10    8    6    2
 0.027341316189586   10    8    6    3
 -0.03979287933239302   10    8    6    5
 -0.0002223773554136576   10    8    7    2
 -0.001272079737179925   10    8    7    3
 0.00185140009836335   10    8    7    5
 -0.00491390946831634   10    8    8    1
 0.01870289129883911   10    8    8    4
 0.04686843447729156   10    8   10    8
 0.0002223773554136582   10    9    6    2
 0.001272079737179929   10    9    6    3
 -0.001851400098363355   10    9    6    5
 0.004779645025435048   10    9    7    2
 0.027341316189586   10    9    7    3
 -0.039792879332393   10    9    7    5
 -0.00491390946831634   10    9    9    1
 0.01870289129883911   10    9    9    4
 0.04686843447729156   10    9   10    9
 0.01953187887138608   10   10    1    1
 3.517223752119047e-10   10   10    2    1
 0.01951004217632724   10   10    2    2
 4.786447473130232e-09   10   10    3    1
 0.02928569342167092   10   10    3    2
 0.0136122933905205   10   10    3    3
 -0.03020946337342063   10   10    4    1
 1.380154045942563e-08   10   10    4    2
 -1.736675940907768e-08   10   10    5    1
 -0.001809359440960332   10   10    5    2
 -0.04662991651851188   10   10    5    3
 3.49821091184909e-12   10   10    5    4
 0.1037188149332575   10   10    5    5
 0.04891032076966462   10   10    6    6
 0.04891032076966395   10   10    7    7
 -6.902506461165686e-13   10   10    8    6
 6.600448595054095e-14   10   10    8    7
 0.04686843447729161   10   10    8    8
 -6.425058675573684e-13   10   10    9    7
 0.04686843447729161   10   10    9    9
 -0.01392660040921071   10   10   10    1
 -1.047018744190805e-08   10   10   10    2
 -2.492999983000387e-12   10   10   10    3
 0.0145596676764509   10   10   10    4
 4.209745521046372e-12   10   10   10    5
 0.1275818375606985   10   10   10   10
 -34.0073117256699    1    1  0  0
 -3.868946127330952e-09    2    1  0  0
 -34.00856569029624    2    2  0  0
 6.674978988927509e-07    3    1  0  0
 0.4526523876700328    3    2  0  0
 0.02556741378376015    3    3  0  0
 -0.4434429407337508    4    1  0  0
 5.52581431058564e-07    4    2  0  0
 -3.40608077113003e-12    4    3  0  0
 0.08350007658156944    4    4  0  0
 1.878896935958925e-07    5    1  0  0
 0.01159765705129202    5    2  0  0
 0.09165119326799809    5    3  0  0
 -4.547674185403817e-11    5    4  0  0
 0.2424101338266242    5    5  0  0
 0.04123331193010271    6    6  0  0
 0.0412333119301157    7    7  0  0
 8.796917592536882e-12    8    6  0  0
 -8.580583173570324e-13    8    7  0  0
 0.0911681123339656    8    8  0  0
 8.18999196247474e-12    9    7  0  0
 0.09116811233396527    9    9  0  0
 -0.06384905287664254   10    1  0  0
 8.528421201577609e-08   10    2  0  0
 3.240899977900504e-11   10    3  0  0
 0.07425363019998696   10    4  0  0
 -5.369724340135059e-11   10    5  0  0
 0.3248907850842593   10   10  0  0
 -107.3331597655191  0  0  0  0
