 &FCI NORB=   4,NELEC= 4,MS2=0,
  ORBSYM=1,1,1,1,
  ISYM=1,
 &END
 0.0583722522724695    1    1    1    1
 0.1573819554253785    2    1    2    1
 0.1150335249846262    2    2    1    1
 0.2507418494813572    2    2    2    2
 0.008310443771155543    3    1    1    1
 0.09968090214091535    3    1    2    2
 0.1078320634949473    3    1    3    1
 0.09800101685106197    3    2    2    1
 0.137282839931948    3    2    3    2
 0.1049715278822905    3    3    1    1
 0.2247559023607897    3    3    2    2
 0.08301314701861764    3    3    3    1
 0.2242734425936015    3    3    3    3
 -0.04308407232010905    4    1    2    1
 0.05296046723720332    4    1    3    2
 0.09706955184930163    4    1    4    1
 0.04116356957077943    4    2    1    1
 0.1213547750568726    4    2    2    2
 0.09851292568661524    4    2    3    1
 0.1225967851292427    4    2    3    3
 0.1046452787095077    4    2    4    2
 0.150633379340662    4    3    2    1
 0.09936654029335099    4    3    3    2
 -0.04096948962938086    4    3    4    1
 0.1624643926918379    4    3    4    3
 0.02801321313404292    4    4    1    1
 0.08702031185058329    4    4    2    2
 0.003968360519324629    4    4    3    1
 0.08316942801888527    4    4    3    3
 0.03187317001136486    4    4    4    2
 0.03008045825940053    4    4    4    4
 -1.526819791268038    1    1  0  0
 -1.596406011973974    2    2  0  0
 -0.1096712312015465    3    1  0  0
 -1.231183211761263    3    3  0  0
 -0.2467659865188822    4    2  0  0
 -0.4299567651539085    4    4  0  0
 3.693421378644413  0  0  0  0
