 &FCI NORB=  10,NELEC=14,MS2=0,
  ORBSYM=1,1,1,1,1,1,1,1,1,1,
  ISYM=1,
 &END
 3.751190564347179    1    1    1    1
 3.74919488144398    2    2    1    1
 3.747200260270431    2    2    2    2
 1.739251561746394    3    3    1    1
 1.738326256954062    3    3    2    2
 0.8064095766789471    3    3    3    3
 1.6596110095854    4    4    1    1
 1.658728074618226    4    4    2    2
 0.7694839786992401    4    4    3    3
 0.7342492085886344    4    4    4    4
 1.626370628526494    5    5    1    1
 1.625505377880882    5    5    2    2
 0.754071969184387    5    5    3    3
 0.7195429169668507    5    5    4    4
 0.7051311779448317    5    5    5    5
 1.626370628526494    6    6    1    1
 1.625505377880882    6    6    2    2
 0.7540719691843869    6    6    3    3
 0.7195429169668506    6    6    4    4
 0.7051311779448316    6    6    5    5
 0.7051311779448315    6    6    6    6
 1.612537009624388    7    7    1    1
 1.611679118646661    7    7    2    2
 0.7476579673182139    7    7    3    3
 0.7134226130690559    7    7    4    4
 0.6991334577323607    7    7    5    5
 0.6991334577323606    7    7    6    6
 0.6931867530597953    7    7    7    7
 1.612537009624387    8    8    1    1
 1.611679118646661    8    8    2    2
 0.7476579673182135    8    8    3    3
 0.7134226130690556    8    8    4    4
 0.6991334577323604    8    8    5    5
 0.6991334577323604    8    8    6    6
 0.6931867530597949    8    8    7    7
 0.6931867530597947    8    8    8    8
 1.539786316147064    9    9    1    1
 1.538967129498717    9    9    2    2
 0.7139268744616745    9    9    3    3
 0.6812360712821681    9    9    4    4
 0.6675915808144001    9    9    5    5
 0.6675915808144    9    9    6    6
 0.6619131657291444    9    9    7    7
 0.6619131657291443    9    9    8    8
 0.6320505073584178    9    9    9    9
 1.539678362166598   10   10    1    1
 1.538859232951194   10   10    2    2
 0.71387682125166   10   10    3    3
 0.6811883100150621   10   10    4    4
 0.6675447761586382   10   10    5    5
 0.6675447761586381   10   10    6    6
 0.6618667591854482   10   10    7    7
 0.661866759185448   10   10    8    8
 0.6320061944772023   10   10    9    9
 0.6319618847027503   10   10   10   10
 1.87559528217359    1    1  0  0
 1.873600130135215    2    2  0  0
 0.4032047883394735    3    3  0  0
 0.3671246042943172    4    4  0  0
 0.3525655889724159    5    5  0  0
 0.3525655889724157    6    6  0  0
 0.3465933765298976    7    7  0  0
 0.3465933765298974    8    8  0  0
 0.3160252536792089    9    9  0  0
 0.3159809423513751   10   10  0  0
 11.78621969776364  0  0  0  0
