 &FCI NORB=   7,NELEC=10,MS2=0,
  ORBSYM=1,1,1,1,1,1,1,
  ISYM=1,
 &END
 -2.049643659456414    1    1    1    1
 -2.050831493715723    2    2    1    1
 -2.052020016363094    2    2    2    2
 -2.060892467909675    3    3    1    1
 -2.062086821214378    3    3    2    2
 -2.072203011821701    3    3    3    3
 -2.068984383402304    4    4    1    1
 -2.070183426231647    4    4    2    2
 -2.080339337183808    4    4    3    3
 -2.088507609121624    4    4    4    4
 -2.069893538216994    5    5    1    1
 -2.071093107930721    5    5    2    2
 -2.081253481601603    5    5    3    3
 -2.089425342848172    5    5    4    4
 -2.090343479846028    5    5    5    5
 -2.15830125067567    6    6    1    1
 -2.159552055495149    6    6    2    2
 -2.170146391288904    6    6    3    3
 -2.178667282833893    6    6    4    4
 -2.179624634598211    6    6    5    5
 -2.272719097866787    6    6    6    6
 -4.476489130954262    7    7    1    1
 -4.479083400024712    7    7    2    2
 -4.501056898402467    7    7    3    3
 -4.518729907846928    7    7    4    4
 -4.520715531849197    7    7    5    5
 -4.713800882118692    7    7    6    6
 -9.776799419303051    7    7    7    7
 -1.024821829728207    1    1  0  0
 -1.026010008181547    2    2  0  0
 -1.03610150591085    3    3  0  0
 -1.044253804560812    4    4  0  0
 -1.045171739923014    5    5  0  0
 -1.136359548933393    6    6  0  0
 -4.888399709651526    7    7  0  0
 4.210009604290913  0  0  0  0
