 &FCI NORB=  10,NELEC=14,MS2=0,
  ORBSYM=1,1,1,1,1,1,1,1,1,1,
  ISYM=1,
 &END
 -1.50240637661398    1    1    1    1
 -1.572058100541696    2    2    1    1
 -1.644938886008033    2    2    2    2
 -1.572058100541697    3    3    1    1
 -1.644938886008034    3    3    2    2
 -1.644938886008034    3    3    3    3
 -1.606700300904626    4    4    1    1
 -1.681187102568368    4    4    2    2
 -1.681187102568368    4    4    3    3
 -1.718234092393158    4    4    4    4
 -1.611764624093015    5    5    1    1
 -1.686486208333621    5    5    2    2
 -1.686486208333622    5    5    3    3
 -1.72364997035888    5    5    4    4
 -1.729082919184893    5    5    5    5
 -1.611764624093016    6    6    1    1
 -1.686486208333623    6    6    2    2
 -1.686486208333624    6    6    3    3
 -1.723649970358881    6    6    4    4
 -1.729082919184894    6    6    5    5
 -1.729082919184896    6    6    6    6
 -1.627834994236577    7    7    1    1
 -1.703301602594545    7    7    2    2
 -1.703301602594545    7    7    3    3
 -1.740835912156798    7    7    4    4
 -1.746323031112432    7    7    5    5
 -1.746323031112433    7    7    6    6
 -1.763735038474236    7    7    7    7
 -1.679470638275516    8    8    1    1
 -1.757331080738167    8    8    2    2
 -1.757331080738167    8    8    3    3
 -1.796055995155743    8    8    4    4
 -1.801717167944963    8    8    5    5
 -1.801717167944964    8    8    6    6
 -1.819681491860546    8    8    7    7
 -1.877402591425692    8    8    8    8
 -2.934230906495733    9    9    1    1
 -3.070262172217605    9    9    2    2
 -3.070262172217606    9    9    3    3
 -3.137919110151411    9    9    4    4
 -3.147809838686087    9    9    5    5
 -3.14780983868609    9    9    6    6
 -3.179195605871352    9    9    7    7
 -3.280041092801016    9    9    8    8
 -5.730613998084019    9    9    9    9
 -2.934726394764751   10   10    1    1
 -3.070780631376964   10   10    2    2
 -3.070780631376965   10   10    3    3
 -3.138448994184998   10   10    4    4
 -3.148341392915414   10   10    5    5
 -3.148341392915417   10   10    6    6
 -3.179732460051484   10   10    7    7
 -3.280594976232543   10   10    8    8
 -5.73158169698053   10   10    9    9
 -5.732549559287308   10   10   10   10
 -0.7512031883069902    1    1  0  0
 -0.8224694430040166    2    2  0  0
 -0.822469443004017    3    3  0  0
 -0.8591170461965788    4    4  0  0
 -0.8645414595924465    5    5  0  0
 -0.864541459592448    6    6  0  0
 -0.8818675192371179    7    7  0  0
 -0.9387012957128459    8    8  0  0
 -2.865306999042009    9    9  0  0
 -2.866274779643654   10   10  0  0
 21.6080694459  0  0  0  0
