 &FCI NORB=  10,NELEC=14,MS2=0,
  ORBSYM=1,1,1,1,1,1,1,1,1,1,
  ISYM=1,
 &END
 -1.499265265867436    1    1    1    1
 -1.566018606655706    2    2    1    1
 -1.570726435331116    2    2    2    2
 -1.600661974980472    3    3    1    1
 -1.609233971060315    3    3    2    2
 -1.611382578644985    3    3    3    3
 -1.627004612509045    4    4    1    1
 -1.678869283383752    4    4    2    2
 -2.931749480566831    4    4    3    3
 -2.934396534559954    4    4    4    4
 -1.642215863728724    5    5    1    1
 -1.644243239853785    5    5    2    2
 -1.679673770427124    5    5    3    3
 -1.685064554944971    5    5    4    4
 -1.685718843285799    5    5    5    5
 -1.700578626916526    6    6    1    1
 -1.756640300707768    6    6    2    2
 -3.068630813785651    6    6    3    3
 -3.06947801629103    6    6    4    4
 -1.643521133286818    6    6    5    5
 -1.680421278249808    6    6    6    6
 -1.684015161280557    7    7    1    1
 -1.683998985857288    7    7    2    2
 -1.702624217619146    7    7    3    3
 -1.756754252371463    7    7    4    4
 -3.068901302105741    7    7    5    5
 -3.069310092856123    7    7    6    6
 -1.717124194734865    7    7    7    7
 -1.721093924321663    8    8    1    1
 -1.721328926843973    8    8    2    2
 -1.74039698551463    8    8    3    3
 -1.79580938686639    8    8    4    4
 -3.136660330476541    8    8    5    5
 -3.137076137279241    8    8    6    6
 -1.727246875181972    8    8    7    7
 -1.728936497645805    8    8    8    8
 -1.74895467466615    9    9    1    1
 -1.80466546689292    9    9    2    2
 -3.15079261789176    9    9    3    3
 -3.151519411563997    9    9    4    4
 -1.732230454375774    9    9    5    5
 -1.749469129853014    9    9    6    6
 -1.804937121270826    9    9    7    7
 -3.15112851601298    9    9    8    8
 -3.149921008517528    9    9    9    9
 -1.766287501980475   10   10    1    1
 -1.822551973283753   10   10    2    2
 -3.182174953651231   10   10    3    3
 -3.1829074638887   10   10    4    4
 -1.880512555755837   10   10    5    5
 -3.283145004614935   10   10    6    6
 -3.283743845191462   10   10    7    7
 -5.733918985522499   10   10    8    8
 -5.734657596957227   10   10    9    9
 -5.734089837819002   10   10   10   10
 -0.7496326329337178    1    1  0  0
 -0.7853632176655582    2    2  0  0
 -0.8056912893224926    3    3  0  0
 -1.467198267279977    4    4  0  0
 -0.8428594216428996    5    5  0  0
 -0.8402106391249038    6    6  0  0
 -0.8585620973674323    7    7  0  0
 -0.8644682488229023    8    8  0  0
 -1.574960504258764    9    9  0  0
 -2.867044918909501   10   10  0  0
 21.6080694459  0  0  0  0
