 &FCI NORB=  10,NELEC=14,MS2=0,
  ORBSYM=1,1,1,1,1,1,1,1,1,1,
  ISYM=1,
 &END
 3.75696555961209    1    1    1    1
 3.760837642998897    2    2    1    1
 1.745067926156538    2    2    2    2
 1.661414407230008    3    3    1    1
 1.628284232120004    3    3    2    2
 1.627137736454592    3    3    3    3
 1.61404700281997    4    4    1    1
 1.614110550505364    4    4    2    2
 1.541187632884811    4    4    3    3
 1.539928168118902    4    4    4    4
 3.748832434036051    5    5    1    1
 1.739974652262192    5    5    2    2
 1.657592264075443    5    5    3    3
 1.624473619473481    5    5    4    4
 1.624559474618488    5    5    5    5
 1.613312476927772    6    6    1    1
 1.613327927061194    6    6    2    2
 1.537831342510488    6    6    3    3
 1.537889397030441    6    6    4    4
 0.8045215303413338    6    6    5    5
 0.7686693364602791    6    6    6    6
 0.7555635869967932    7    7    1    1
 0.7555792822377622    7    7    2    2
 0.7463380728621887    7    7    3    3
 0.7428459068458229    7    7    4    4
 0.7116586283272129    7    7    5    5
 0.7120016522686474    7    7    6    6
 0.7300636215806907    7    7    7    7
 0.7210344228915767    8    8    1    1
 0.7210513898196936    8    8    2    2
 0.7121026938968127    8    8    3    3
 0.7122396905227215    8    8    4    4
 0.679318615896207    8    8    5    5
 0.6790626260490048    8    8    6    6
 0.6965111717531643    8    8    7    7
 0.7039882463502488    8    8    8    8
 0.7004453782562291    9    9    1    1
 0.7005191432932615    9    9    2    2
 0.6678844103328029    9    9    3    3
 0.667132147895693    9    9    4    4
 0.7044808933377024    9    9    5    5
 0.6985265836567982    9    9    6    6
 0.6958951282507636    9    9    7    7
 0.6667988498414673    9    9    8    8
 0.6677589160936196    9    9    9    9
 0.694576385953786   10   10    1    1
 0.6946810468973984   10   10    2    2
 0.6623171314995745   10   10    3    3
 0.6621475889721246   10   10    4    4
 0.6932087989721167   10   10    5    5
 0.6619350795019263   10   10    6    6
 0.6617929598617801   10   10    7    7
 0.6319766819206133   10   10    8    8
 0.632929738269761   10   10    9    9
 0.6324345808267429   10   10   10   10
 1.878482779806045    1    1  0  0
 0.8725339630782689    2    2  0  0
 0.813568868227296    3    3  0  0
 0.769964084059451    4    4  0  0
 0.812279737309244    5    5  0  0
 0.3843346682301396    6    6  0  0
 0.3650318107903454    7    7  0  0
 0.3519941231751244    8    8  0  0
 0.3338794580468098    9    9  0  0
 0.3162172904133714   10   10  0  0
 11.78621969776364  0  0  0  0
