 &FCI NORB=   7,NELEC=10,MS2=0,
  ORBSYM=1,1,1,1,1,1,1,
  ISYM=1,
 &END
 -2.044222659934782    1    1    1    1
 -2.046387149098484    2    2    1    1
 -2.06025875007632    2    2    2    2
 -2.068115075861917    3    3    1    1
 -2.066117481550636    3    3    2    2
 -2.157722063473726    3    3    3    3
 -4.474983118065392    4    4    1    1
 -2.050925969760007    4    4    2    2
 -2.058355950051757    4    4    3    3
 -2.069637179778642    4    4    4    4
 -2.066879767500046    5    5    1    1
 -2.158411524435164    5    5    2    2
 -4.478387189238152    5    5    3    3
 -2.071129366452232    5    5    4    4
 -2.07977606651936    5    5    5    5
 -2.080668862506873    6    6    1    1
 -2.169459762911572    6    6    2    2
 -4.500383980791901    6    6    3    3
 -2.087847421256768    6    6    4    4
 -2.088907830996259    6    6    5    5
 -2.178433020292385    6    6    6    6
 -4.521419970183122    7    7    1    1
 -2.09601486171621    7    7    2    2
 -2.184874727400505    7    7    3    3
 -4.526449875118994    7    7    4    4
 -2.275498822697244    7    7    5    5
 -4.719179647008124    7    7    6    6
 -9.778323553950802    7    7    7    7
 -1.022111329967391    1    1  0  0
 -1.03012937503816    2    2  0  0
 -1.078861031736863    3    3  0  0
 -1.034818589889321    4    4  0  0
 -1.03988803325968    5    5  0  0
 -1.089216510146192    6    6  0  0
 -4.889161776975401    7    7  0  0
 4.210009604290913  0  0  0  0
