 &FCI NORB=   7,NELEC=10,MS2=0,
  ORBSYM=1,1,1,1,1,1,1,
  ISYM=1,
 &END
 -2.019912404963457    1    1    1    1
 -2.020126209725167    2    2    1    1
 -2.020340037117799    2    2    2    2
 -2.026028913241497    3    3    1    1
 -2.026243365426627    3    3    2    2
 -2.032163942953153    3    3    3    3
 -2.026334821870325    4    4    1    1
 -2.026549306435434    4    4    2    2
 -2.032470777905645    4    4    3    3
 -2.032777659186923    4    4    4    4
 -2.026349697979336    5    5    1    1
 -2.026564184119059    5    5    2    2
 -2.032485699061086    5    5    3    3
 -2.032792582595298    5    5    4    4
 -2.032807506113233    5    5    5    5
 -2.122778503362508    6    6    1    1
 -2.12300319634967    6    6    2    2
 -2.129206501060012    6    6    3    3
 -2.129527988397618    6    6    4    4
 -2.129543622087645    6    6    5    5
 -2.230883162688183    6    6    6    6
 -4.431136383446813    7    7    1    1
 -4.43160541272563    7    7    2    2
 -4.444554332811291    7    7    3    3
 -4.445225412830345    7    7    4    4
 -4.445258046952359    7    7    5    5
 -4.656796521044465    7    7    6    6
 -9.720703531726333    7    7    7    7
 -1.009956202481728    1    1  0  0
 -1.010170018558899    2    2  0  0
 -1.016081971476576    3    3  0  0
 -1.016388829593462    4    4  0  0
 -1.016403753056616    5    5  0  0
 -1.115441581344092    6    6  0  0
 -4.860351765863166    7    7  0  0
 2.947006723003639  0  0  0  0
