 &FCI NORB=  10,NELEC=14,MS2=0,
  ORBSYM=1,1,1,1,1,1,1,1,1,1,
  ISYM=1,
 &END
 3.795820409064221    1    1    1    1
 3.789593607573509    2    2    1    1
 3.783377020753837    2    2    2    2
 2.052403223986489    3    3    1    1
 2.049036387287855    3    3    2    2
 1.109736114957188    3    3    3    3
 1.92954784619529    4    4    1    1
 1.926382545914909    4    4    2    2
 1.043308110918689    4    4    3    3
 0.9808564393263139    4    4    4    4
 1.788583463457974    5    5    1    1
 1.785649406264454    5    5    2    2
 0.9670885529789978    5    5    3    3
 0.9091993291923566    5    5    4    4
 0.8427771762110245    5    5    5    5
 1.788583463457973    6    6    1    1
 1.785649406264453    6    6    2    2
 0.9670885529789975    6    6    3    3
 0.9091993291923561    6    6    4    4
 0.8427771762110242    6    6    5    5
 0.842777176211024    6    6    6    6
 1.743095112225699    7    7    1    1
 1.74023567577361    7    7    2    2
 0.9424929639727293    7    7    3    3
 0.886076014417607    7    7    4    4
 0.8213431503546559    7    7    5    5
 0.8213431503546557    7    7    6    6
 0.8004542477851766    7    7    7    7
 1.743095112225699    8    8    1    1
 1.74023567577361    8    8    2    2
 0.9424929639727291    8    8    3    3
 0.886076014417607    8    8    4    4
 0.8213431503546559    8    8    5    5
 0.8213431503546555    8    8    6    6
 0.8004542477851766    8    8    7    7
 0.8004542477851765    8    8    8    8
 1.635842287599831    9    9    1    1
 1.633158792571807    9    9    2    2
 0.884501273291542    9    9    3    3
 0.8315556645451471    9    9    4    4
 0.7708058203806391    9    9    5    5
 0.7708058203806388    9    9    6    6
 0.7512022141717528    9    9    7    7
 0.7512022141717527    9    9    8    8
 0.7049806633395371    9    9    9    9
 1.634525338410177   10   10    1    1
 1.631844003753375   10   10    2    2
 0.8837891977791662   10   10    3    3
 0.8308862133597389   10   10    4    4
 0.7701852763904112   10   10    5    5
 0.7701852763904111   10   10    6    6
 0.7505974522367432   10   10    7    7
 0.7505974522367431   10   10    8    8
 0.7044131124696615   10   10    9    9
 0.7038460185115947   10   10   10   10
 1.897910204532111    1    1  0  0
 1.891688510376918    2    2  0  0
 0.554868057478594    3    3  0  0
 0.490428219663157    4    4  0  0
 0.4213885881055123    5    5  0  0
 0.421388588105512    6    6  0  0
 0.4002271238925883    7    7  0  0
 0.4002271238925882    8    8  0  0
 0.3524903316697686    9    9  0  0
 0.3519230092557973   10   10  0  0
 18.5212023822  0  0  0  0
