 &FCI NORB=   7,NELEC=10,MS2=0,
  ORBSYM=1,1,1,1,1,1,1,
  ISYM=1,
 &END
 -2.060029200380316    1    1    1    1
 -2.065319162302336    2    2    1    1
 -2.070622708350799    2    2    2    2
 -2.13943691430985    3    3    1    1
 -2.144930787799203    3    3    2    2
 -2.22190554845855    3    3    3    3
 -2.16410616226973    4    4    1    1
 -2.169663384075858    4    4    2    2
 -2.247525719145395    4    4    3    3
 -2.273441308846104    4    4    4    4
 -2.177900862159915    5    5    1    1
 -2.183493507462531    5    5    2    2
 -2.261852161780985    5    5    3    3
 -2.287932945679941    5    5    4    4
 -2.302516956808776    5    5    5    5
 -2.254422260699783    6    6    1    1
 -2.260211405782315    6    6    2    2
 -2.341323222065269    6    6    3    3
 -2.36832036450636    6    6    4    4
 -2.383416790569818    6    6    5    5
 -2.467159071628897    6    6    6    6
 -4.526409552990837    7    7    1    1
 -4.538032948510846    7    7    2    2
 -4.700888553019309    7    7    3    3
 -4.755093182550814    7    7    4    4
 -4.785403656476158    7    7    5    5
 -4.953540685453772    7    7    6    6
 -9.945676225183709    7    7    7    7
 -1.030014600190158    1    1  0  0
 -1.0353113541754    2    2  0  0
 -1.110952774229275    3    3  0  0
 -1.136720654423052    4    4  0  0
 -1.151258478404388    5    5  0  0
 -1.233579535814448    6    6  0  0
 -4.972838112591854    7    7  0  0
 8.841020169010916  0  0  0  0
