 &FCI NORB=  10,NELEC=14,MS2=0,
  ORBSYM=1,1,1,1,1,1,1,1,1,1,
  ISYM=1,
 &END
 3.800199427625295    1    1    1    1
 3.797511336705064    2    2    1    1
 2.055950548420348    2    2    2    2
 1.931801832291903    3    3    1    1
 1.790684937712892    3    3    2    2
 1.789434387411856    3    3    3    3
 1.745132810105393    4    4    1    1
 1.74480443817454    4    4    2    2
 1.636751842970573    4    4    3    3
 1.634738578073174    4    4    4    4
 3.78538591772043    5    5    1    1
 2.050653796194246    5    5    2    2
 1.927105273780169    5    5    3    3
 1.785496818877609    5    5    4    4
 1.785532708196    5    5    5    5
 1.741512853195726    6    6    1    1
 1.741187250028241    6    6    2    2
 1.633357082845265    6    6    3    3
 1.631047761303208    6    6    4    4
 1.108610402965321    6    6    5    5
 1.042719397157191    6    6    6    6
 0.968377420233076    7    7    1    1
 0.9679334112114873    7    7    2    2
 0.9428150257370088    7    7    3    3
 0.941453388636136    7    7    4    4
 0.8830785302026158    7    7    5    5
 0.8817827212547178    7    7    6    6
 0.9798963380987126    7    7    7    7
 0.9098479215822108    8    8    1    1
 0.9092461764493737    8    8    2    2
 0.885616233961216    8    8    3    3
 0.8844635545651409    8    8    4    4
 0.8286202432302471    8    8    5    5
 0.8285556915828891    8    8    6    6
 0.8369370699441598    8    8    7    7
 0.8398276847345337    8    8    8    8
 0.8223890840789424    9    9    1    1
 0.8223654605259091    9    9    2    2
 0.7711896862155507    9    9    3    3
 0.7704027240384128    9    9    4    4
 0.8429736894865104    9    9    5    5
 0.8215607618629799    9    9    6    6
 0.8211001743139046    9    9    7    7
 0.7706067424885454    9    9    8    8
 0.7705435208084943    9    9    9    9
 0.8014403699582968   10   10    1    1
 0.8012441562367495   10   10    2    2
 0.7512389016316834   10   10    3    3
 0.7497652833411075   10   10    4    4
 0.7994065823146201   10   10    5    5
 0.7497674761466104   10   10    6    6
 0.7483908343316169   10   10    7    7
 0.7016662274096884   10   10    8    8
 0.7047434956898179   10   10    9    9
 0.7036258206169435   10   10   10   10
 1.900099713812647    1    1  0  0
 1.027975274210174    2    2  0  0
 0.8947171937059278    3    3  0  0
 0.8173692890365869    4    4  0  0
 0.8927663540979999    5    5  0  0
 0.5213596985785953    6    6  0  0
 0.4899481690493563    7    7  0  0
 0.4199138423672669    8    8  0  0
 0.3852717604042472    9    9  0  0
 0.3518129103084717   10   10  0  0
 18.5212023822  0  0  0  0
