 &FCI NORB=  10,NELEC=14,MS2=0,
  ORBSYM=1,1,1,1,1,1,1,1,1,1,
  ISYM=1,
 &END
 -1.812067794249715    1    1    1    1
 3.371513040298515e-06    2    1    1    1
 1.947740131343559    2    1    2    1
 -1.811661839380969    2    2    1    1
 -3.370809595548091e-06    2    2    2    1
 -1.811255533453114    2    2    2    2
 -4.780947096584194e-07    3    1    1    1
 -0.1998504996537319    3    1    2    1
 2.136414532742228e-07    3    1    2    2
 0.03030381296716364    3    1    3    1
 -0.1526217657048832    3    2    1    1
 1.727353912320098e-07    3    2    2    1
 -0.1527013920999338    3    2    2    2
 0.03032604683591894    3    2    3    2
 -1.944040751499839    3    3    1    1
 -1.944114912435562    3    3    2    2
 3.361644112236124e-08    3    3    3    1
 0.03882775229695593    3    3    3    2
 -0.6150211755485742    3    3    3    3
 0.1584616522531376    4    1    1    1
 1.792378512925204e-07    4    1    2    1
 0.1585375115698078    4    1    2    2
 -5.423272674576582e-08    4    1    3    1
 -0.03133451938860069    4    1    3    2
 -0.03941814143488398    4    1    3    3
 0.03267238462643521    4    1    4    1
 2.213867203970103e-07    4    2    1    1
 0.2072026065762777    4    2    2    1
 -4.959342628957651e-07    4    2    2    2
 -0.03133108923834846    4    2    3    1
 5.422932066499469e-08    4    2    3    2
 3.415359269526445e-08    4    2    3    3
 0.03269628315289799    4    2    4    2
 -6.151845619363127e-07    4    3    1    1
 -0.355427293212169    4    3    2    1
 6.151672300169778e-07    4    3    2    2
 0.009044447527688886    4    3    3    1
 -0.009132134628434601    4    3    4    2
 0.2151542376975149    4    3    4    3
 -1.932044957013785    4    4    1    1
 -1.932096668826564    4    4    2    2
 3.262033791718114e-08    4    4    3    1
 0.03764744742711706    4    4    3    2
 -0.620539518270379    4    4    3    3
 -0.0392534322951401    4    4    4    1
 3.39839975030699e-08    4    4    4    2
 -0.6104550151188146    4    4    4    4
 -5.845506040748255e-08    5    1    1    1
 -0.02373189453567734    5    1    2    1
 2.372154158932719e-08    5    1    2    2
 0.003125899895877717    5    1    3    1
 -0.00499387365023091    5    1    4    2
 -0.0009225311459042244    5    1    4    3
 0.0105769200907606    5    1    5    1
 -0.02009417734856835    5    2    1    1
 2.057688168536516e-08    5    2    2    1
 -0.02006419032878218    5    2    2    2
 0.003125155612651816    5    2    3    2
 0.001508542324556432    5    2    3    3
 -0.004979936438170714    5    2    4    1
 0.00739300020758049    5    2    4    4
 0.01070380899859321    5    2    5    2
 0.004822579200410059    5    3    1    1
 0.004878175380039599    5    3    2    2
 -0.001919790915685124    5    3    3    2
 -0.0189784940658147    5    3    3    3
 -0.0006378350347298449    5    3    4    1
 0.01626281651942143    5    3    4    4
 1.295791869023581e-08    5    3    5    1
 0.01495672791085249    5    3    5    2
 0.08204544711036832    5    3    5    3
 -1.710504313679094e-07    5    4    1    1
 -0.09882901655562196    5    4    2    1
 1.710574277897331e-07    5    4    2    2
 0.002845531507744879    5    4    3    1
 -0.0004006383055709442    5    4    4    2
 0.06846119253730677    5    4    4    3
 -0.01411458738214852    5    4    5    1
 1.222092929673923e-08    5    4    5    2
 0.08545515874584431    5    4    5    4
 -1.913708906100606    5    5    1    1
 -1.913769785451834    5    5    2    2
 3.60216284227009e-08    5    5    3    1
 0.04159073680270434    5    5    3    2
 -0.5834100152360355    5    5    3    3
 -0.04321317219258113    5    5    4    1
 3.742814399184097e-08    5    5    4    2
 -0.5791463761107778    5    5    4    4
 0.007542129188476585    5    5    5    2
 0.005236132099708628    5    5    5    3
 -0.5159655099696838    5    5    5    5
 0.01084584035054618    6    1    6    1
 0.01088336426207011    6    2    6    2
 1.321572897268841e-08    6    3    6    1
 0.01525085867110653    6    3    6    2
 0.07625442262144358    6    3    6    3
 -0.01504085497457469    6    4    6    1
 1.302010981612995e-08    6    4    6    2
 0.07173031871322608    6    4    6    4
 0.001708948165405498    6    5    6    2
 0.004780813994356413    6    5    6    3
 0.02138989508215371    6    5    6    5
 -1.90659630697107    6    6    1    1
 -1.906670107184188    6    6    2    2
 3.599072861313498e-08    6    6    3    1
 0.04155682485923447    6    6    3    2
 -0.5817580676770278    6    6    3    3
 -0.04279152612863758    6    6    4    1
 3.706442821734334e-08    6    6    4    2
 -0.5784754263120948    6    6    4    4
 0.00469078984506945    6    6    5    2
 -0.0001949483756975706    6    6    5    3
 -0.5576136962379781    6    6    5    5
 -0.5146749377785858    6    6    6    6
 0.01084584035054617    7    1    7    1
 0.0108833642620701    7    2    7    2
 1.321525246108007e-08    7    3    7    1
 0.01525085867110652    7    3    7    2
 0.07625442262144355    7    3    7    3
 -0.01504085497457469    7    4    7    1
 1.302059908914959e-08    7    4    7    2
 0.07173031871322604    7    4    7    4
 0.001708948165405497    7    5    7    2
 0.00478081399435641    7    5    7    3
 0.0213898950821537    7    5    7    5
 0.02033326810428077    7    6    7    6
 -1.90659630697107    7    7    1    1
 -1.906670107184188    7    7    2    2
 3.599091411917051e-08    7    7    3    1
 0.04155682485923447    7    7    3    2
 -0.5817580676770278    7    7    3    3
 -0.04279152612863758    7    7    4    1
 3.706424252269339e-08    7    7    4    2
 -0.5784754263120947    7    7    4    4
 0.004690789845069451    7    7    5    2
 -0.0001949483756975533    7    7    5    3
 -0.5576136962379781    7    7    5    5
 -0.5553414739871474    7    7    6    6
 -0.5146749377785858    7    7    7    7
 -1.91566912821768e-08    8    1    6    1
 -0.01110491202122514    8    1    6    2
 -0.01558201238891912    8    1    6    3
 1.317037456342176e-08    8    1    6    4
 -0.001741650479590381    8    1    6    5
 0.0005166661863464653    8    1    7    2
 0.0007249673749056887    8    1    7    3
 8.103188116380763e-05    8    1    7    5
 0.01135558985355665    8    1    8    1
 -0.01103110908843193    8    2    6    1
 1.915651494136982e-08    8    2    6    2
 1.347398895196318e-08    8    2    6    3
 0.01523119697004194    8    2    6    4
 0.0005132324374113478    8    2    7    1
 -0.0007086453667496246    8    2    7    4
 0.01124400889370633    8    2    8    2
 -0.01468868458056678    8    3    6    1
 1.270045571956109e-08    8    3    6    2
 0.06970879755967926    8    3    6    4
 0.0006834044817448542    8    3    7    1
 -0.003243265549616106    8    3    7    4
 1.289939178657248e-08    8    3    8    1
 0.01490029369873806    8    3    8    2
 0.06844947855531124    8    3    8    3
 1.370667981260039e-08    8    4    6    1
 0.01585016872434896    8    4    6    2
 0.07728858989575321    8    4    6    3
 0.009724072613424258    8    4    6    5
 -0.0007374435936192067    8    4    7    2
 -0.003595922319169283    8    4    7    3
 -0.000452421370230697    8    4    7    5
 -0.016231403701872    8    4    8    1
 1.406432933329973e-08    8    4    8    2
 0.07978737326611866    8    4    8    4
 -0.002059172752582379    8    5    6    1
 0.01224898534061399    8    5    6    4
 9.580489526362913e-05    8    5    7    1
 -0.0005698952436951039    8    5    7    4
 0.002126723392780067    8    5    8    2
 0.008727116446082969    8    5    8    3
 0.02051262372407846    8    5    8    5
 -6.326909263271012e-07    8    6    1    1
 -0.3655460673101886    8    6    2    1
 6.326881653245167e-07    8    6    2    2
 0.00589130746963396    8    6    3    1
 -0.005897417647580029    8    6    4    2
 0.2260576417577396    8    6    4    3
 -0.001092695126713346    8    6    5    1
 0.06818988198217153    8    6    5    4
 0.2656700165684946    8    6    8    6
 2.943652566892303e-08    8    7    1    1
 0.01700736504441635    8    7    2    1
 -2.943639365995113e-08    8    7    2    2
 -0.0002740984671569161    8    7    3    1
 0.0002743827487731287    8    7    4    2
 -0.01051753849451581    8    7    4    3
 5.083863995313912e-05    8    7    5    1
 -0.00317259661344505    8    7    5    4
 -0.01141221825639546    8    7    8    6
 0.0209136304182581    8    7    8    7
 -1.900550766255274    8    8    1    1
 -1.90062331266932    8    8    2    2
 3.577984340639804e-08    8    8    3    1
 0.04130709170731724    8    8    3    2
 -0.5812537888861917    8    8    3    3
 -0.04259524036151272    8    8    4    1
 3.688899132716843e-08    8    8    4    2
 -0.5764860279894251    8    8    4    4
 0.004967657733030949    8    8    5    2
 0.002675473691347434    8    8    5    3
 -0.5568468453238182    8    8    5    5
 -0.5125863073524632    8    8    6    6
 -0.001925992126331135    8    8    7    6
 -0.5538928142912387    8    8    7    7
 -0.5099903028186342    8    8    8    8
 -0.0005166661863464668    9    1    6    2
 -0.0007249673749056907    9    1    6    3
 -8.103188116380784e-05    9    1    6    5
 -1.915668322415939e-08    9    1    7    1
 -0.01110491202122514    9    1    7    2
 -0.01558201238891911    9    1    7    3
 1.317035574773335e-08    9    1    7    4
 -0.00174165047959038    9    1    7    5
 0.01135558985355665    9    1    9    1
 -0.0005132324374113493    9    2    6    1
 0.0007086453667496266    9    2    6    4
 -0.01103110908843192    9    2    7    1
 1.915652063984362e-08    9    2    7    2
 1.347398341450399e-08    9    2    7    3
 0.01523119697004193    9    2    7    4
 0.01124400889370633    9    2    9    2
 -0.0006834044817448561    9    3    6    1
 0.003243265549616116    9    3    6    4
 -0.01468868458056678    9    3    7    1
 1.27004501845861e-08    9    3    7    2
 0.06970879755967922    9    3    7    4
 1.289987202639127e-08    9    3    9    1
 0.01490029369873806    9    3    9    2
 0.06844947855531122    9    3    9    3
 0.0007374435936192088    9    4    6    2
 0.003595922319169293    9    4    6    3
 0.0004524213702306983    9    4    6    5
 1.37066609922566e-08    9    4    7    1
 0.01585016872434895    9    4    7    2
 0.07728858989575317    9    4    7    3
 0.009724072613424254    9    4    7    5
 -0.016231403701872    9    4    9    1
 1.406383623282063e-08    9    4    9    2
 0.07978737326611864    9    4    9    4
 -9.580489526362942e-05    9    5    6    1
 0.0005698952436951054    9    5    6    4
 -0.002059172752582378    9    5    7    1
 0.01224898534061399    9    5    7    4
 0.002126723392780067    9    5    9    2
 0.008727116446082967    9    5    9    3
 0.02051262372407846    9    5    9    5
 -2.943651765572785e-08    9    6    1    1
 -0.0170073650444164    9    6    2    1
 2.943640167228063e-08    9    6    2    2
 0.0002740984671569173    9    6    3    1
 -0.0002743827487731298    9    6    4    2
 0.01051753849451584    9    6    4    3
 -5.083863995313928e-05    9    6    5    1
 0.003172596613445058    9    6    5    4
 0.01141221825639549    9    6    8    6
 0.01985170263836835    9    6    8    7
 0.02091363041825811    9    6    9    6
 -6.326908308256955e-07    9    7    1    1
 -0.3655460673101884    9    7    2    1
 6.326882608022253e-07    9    7    2    2
 0.00589130746963396    9    7    3    1
 -0.005897417647580023    9    7    4    2
 0.2260576417577395    9    7    4    3
 -0.001092695126713345    9    7    5    1
 0.06818988198217148    9    7    5    4
 0.2249046835118678    9    7    8    6
 -0.01141221825639545    9    7    8    7
 0.01141221825639548    9    7    9    6
 0.2656700165684944    9    7    9    7
 0.001925992126331126    9    8    6    6
 0.02065325346938765    9    8    7    6
 -0.001925992126331148    9    8    7    7
 0.02119827266162029    9    8    9    8
 -1.900550766255274    9    9    1    1
 -1.90062331266932    9    9    2    2
 3.577965644350813e-08    9    9    3    1
 0.04130709170731726    9    9    3    2
 -0.5812537888861919    9    9    3    3
 -0.04259524036151274    9    9    4    1
 3.688917848140605e-08    9    9    4    2
 -0.5764860279894251    9    9    4    4
 0.004967657733030952    9    9    5    2
 0.002675473691347425    9    9    5    3
 -0.5568468453238183    9    9    5    5
 -0.5538928142912387    9    9    6    6
 0.001925992126331142    9    9    7    6
 -0.5125863073524632    9    9    7    7
 -0.552386848141875    9    9    8    8
 -0.5099903028186343    9    9    9    9
 0.02417122879684705   10    1    1    1
 2.996444507263847e-08   10    1    2    1
 0.02422741632488314   10    1    2    2
 -0.005726516362753016   10    1    3    2
 -0.009381643603602502   10    1    3    3
 0.004034359844834095   10    1    4    1
 -0.002824008342038028   10    1    4    4
 1.81787254640233e-08   10    1    5    1
 0.01057956496628389   10    1    5    2
 0.01643222944650694   10    1    5    3
 -1.379037698827673e-08   10    1    5    4
 -0.003754413622075145   10    1    5    5
 -0.006900641050845311   10    1    6    6
 -0.006900641050845311   10    1    7    7
 -0.006551376996296506   10    1    8    8
 -0.006551376996296506   10    1    9    9
 0.01310142735490846   10    1   10    1
 3.891192003403485e-08   10    2    1    1
 0.03456653137764812   10    2    2    1
 -8.079266980166706e-08   10    2    2    2
 -0.005743973070283454   10    2    3    1
 0.004045967176958647   10    2    4    2
 -0.003882255623054182   10    2    4    3
 0.01042588927252761   10    2    5    1
 -1.817769601565105e-08   10    2    5    2
 -1.420938578677117e-08   10    2    5    3
 -0.01594835416788228   10    2    5    4
 -0.003077056281025678   10    2    8    6
 0.0001431628571979969   10    2    8    7
 -0.0001431628571979973   10    2    9    6
 -0.003077056281025677   10    2    9    7
 0.01292910026662327   10    2   10    2
 -1.04024871925158e-07   10    3    1    1
 -0.06009907159011896   10    3    2    1
 1.04014899925226e-07   10    3    2    2
 0.0006597259771655286   10    3    3    1
 -0.003238109177496074   10    3    4    2
 0.02729325625785931   10    3    4    3
 0.01428311583289438   10    3    5    1
 -1.234966744074072e-08   10    3    5    2
 -0.05703953362254199   10    3    5    4
 0.03074644155242034   10    3    8    6
 -0.001430506308402157   10    3    8    7
 0.001430506308402161   10    3    9    6
 0.03074644155242033   10    3    9    7
 1.297448474578011e-08   10    3   10    1
 0.01498369454744284   10    3   10    2
 0.07207223928665869   10    3   10    3
 0.005532449685617332   10    4    1    1
 0.00547758977035653   10    4    2    2
 0.0003324812670047534   10    4    3    2
 0.01228264097428544   10    4    3    3
 0.002327180364157232   10    4    4    1
 -0.02017916681590507   10    4    4    4
 -1.35395883136274e-08   10    4    5    1
 -0.01565677104770333   10    4    5    2
 -0.07797916865719731   10    4    5    3
 -0.01899030943095163   10    4    5    5
 -0.000961868343736242   10    4    6    6
 -0.0009618683437362559   10    4    7    7
 -0.003086999769125805   10    4    8    8
 -0.003086999769125808   10    4    9    9
 -0.01677935691001397   10    4   10    1
 1.45359346349169e-08   10    4   10    2
 0.07811721677636133   10    4   10    4
 6.091977300359458e-07   10    5    1    1
 0.3519708773956703   10    5    2    1
 -6.091893105449037e-07   10    5    2    2
 -0.005747420708776433   10    5    3    1
 0.005727774405677526   10    5    4    2
 -0.2146769504607848   10    5    4    3
 0.001222148419511853   10    5    5    1
 -0.07181067811025335   10    5    5    4
 -0.2141911035795054   10    5    8    6
 0.009965436954767943   10    5    8    7
 -0.009965436954767971   10    5    9    6
 -0.2141911035795054   10    5    9    7
 0.003278598393692669   10    5   10    2
 -0.0282245858624051   10    5   10    3
 0.2424201325250966   10    5   10    5
 -0.002184628530657783   10    6    6    1
 0.007367898203655026   10    6    6    4
 0.0021729416368487   10    6    8    2
 0.01059368727344896   10    6    8    3
 -0.01851160332728916   10    6    8    5
 0.0001010980966367177   10    6    9    2
 0.000492880987481801   10    6    9    3
 -0.0008612692721913053   10    6    9    5
 0.02204146869353095   10    6   10    6
 -0.002184628530657782   10    7    7    1
 0.007367898203655023   10    7    7    4
 -0.0001010980966367174   10    7    8    2
 -0.0004928809874817996   10    7    8    3
 0.0008612692721913029   10    7    8    5
 0.0021729416368487   10    7    9    2
 0.01059368727344895   10    7    9    3
 -0.01851160332728915   10    7    9    5
 0.02204146869353094   10    7   10    7
 0.002389822512717525   10    8    6    2
 0.013670658094793   10    8    6    3
 -0.01989643966619651   10    8    6    5
 -0.0001111886777068288   10    8    7    2
 -0.0006360398685899627   10    8    7    3
 0.000925700049181675   10    8    7    5
 -0.00245695473415817   10    8    8    1
 0.009351445649419554   10    8    8    4
 0.02343421723864578   10    8   10    8
 0.0001111886777068291   10    9    6    2
 0.0006360398685899645   10    9    6    3
 -0.0009257000491816776   10    9    6    5
 0.002389822512717524   10    9    7    2
 0.013670658094793   10    9    7    3
 -0.0198964396661965   10    9    7    5
 -0.00245695473415817   10    9    9    1
 0.009351445649419554   10    9    9    4
 0.02343421723864578   10    9   10    9
 -1.886021524575408   10   10    1    1
 -1.886106243136055   10   10    2    2
 3.551161325633631e-08   10   10    3    1
 0.04099922880918902   10   10    3    2
 -0.5737766838045941   10   10    3    3
 -0.04146856834635105   10   10    4    1
 3.591492818185446e-08   10   10    4    2
 -0.5796003142051835   10   10    4    4
 0.0006038626040762657   10   10    5    2
 -0.0220884185604177   10   10    5    3
 -0.5163353408935341   10   10    5    5
 -0.5517212461991188   10   10    6    6
 -0.5517212461991187   10   10    7    7
 -0.5510980670730697   10   10    8    8
 -0.5510980670730697   10   10    9    9
 -0.01105772246674369   10   10   10    1
 0.01061877347904466   10   10   10    4
 -0.5015766448436324   10   10   10   10
 11.78621969776364  0  0  0  0
