 &FCI NORB=  25,NELEC=30,MS2=0,
  ORBSYM=1,1,1,1,1,1,1,1,1,1,1,1,1,1,1,1,1,1,1,1,1,1,1,1,1,
  ISYM=1,
 &END
 -1.838594052560304    1    1    1    1
 0.000719213431024482    2    1    1    1
 -2.813388625205328e-07    2    1    2    1
 -1.836681726864379    2    2    1    1
 0.0007184653755614413    2    2    2    1
 -1.834771390182594    2    2    2    2
 -0.0006708464274571712    3    1    1    1
 2.624188629997623e-07    3    1    2    1
 -0.0006701486786205306    3    1    2    2
 -2.447712308288442e-07    3    1    3    1
 0.002094746240025132    3    2    1    1
 -8.194139583800029e-07    3    2    2    1
 0.002092567489878679    3    2    2    2
 7.643084832064543e-07    3    2    3    1
 -2.386585447703602e-06    3    2    3    2
 -1.825055531551531    3    3    1    1
 0.0007139174897411351    3    3    2    1
 -1.823157287300923    3    3    2    2
 -0.0006659066374914713    3    3    3    1
 0.002079321537688445    3    3    3    2
 -1.811616701690379    3    3    3    3
 -0.0002047646266043207    4    1    1    1
 8.009895901123542e-08    4    1    2    1
 -0.0002045516504682703    4    1    2    2
 -7.471231511690021e-08    4    1    3    1
 2.332923524202024e-07    4    1    3    2
 -0.0002032568385228358    4    1    3    3
 -2.280468178957247e-08    4    1    4    1
 0.000544999653322956    4    2    1    1
 -2.131906551362063e-07    4    2    2    1
 0.0005444327979913632    4    2    2    2
 1.988536131122362e-07    4    2    3    1
 -6.209287868771137e-07    4    2    3    2
 0.0005409865383854685    4    2    3    3
 6.069673202543023e-08    4    2    4    1
 -1.615498656220985e-07    4    2    4    2
 1.472516826772348e-05    4    3    1    1
 -5.760128932245125e-09    4    3    2    1
 1.470985258799891e-05    4    3    2    2
 5.372761057996402e-09    4    3    3    1
 -1.677667281716169e-08    4    3    3    2
 1.461673922127069e-05    4    3    3    3
 1.639945249350912e-09    4    3    4    1
 -4.364863243888472e-09    4    3    4    2
 -1.179328195340352e-10    4    3    4    3
 -1.821312134822412    4    4    1    1
 0.0007124531636702524    4    4    2    1
 -1.819417784086931    4    4    2    2
 -0.0006645407871458171    4    4    3    1
 0.002075056612425425    4    4    3    2
 -1.807900869531692    4    4    3    3
 -0.0002028399356005379    4    4    4    1
 0.0005398769133886998    4    4    4    2
 1.458675862456209e-05    4    4    4    3
 -1.804192658967918    4    4    4    4
 6.573688834538506e-06    5    1    1    1
 -2.571467744461218e-09    5    1    2    1
 6.566851526401773e-06    5    1    2    2
 2.398536894937639e-09    5    1    3    1
 -7.48953253171042e-09    5    1    3    2
 6.525283356305101e-06    5    1    3    3
 7.32113180578564e-10    5    1    4    1
 -1.94858573097549e-09    5    1    4    2
 -5.264820372300824e-11    5    1    4    3
 6.511899257053846e-06    5    1    4    4
 -2.350349433216107e-11    5    1    5    1
 0.0002843409650200636    5    2    1    1
 -1.112272938922988e-07    5    2    2    1
 0.0002840452213603613    5    2    2    2
 1.037472737919578e-07    5    2    3    1
 -3.239552344528302e-07    5    2    3    2
 0.0002822472151119651    5    2    3    3
 3.166711621281688e-08    5    2    4    1
 -8.42849062552188e-08    5    2    4    2
 -2.277266452327165e-09    5    2    4    3
 0.0002816682939319856    5    2    4    4
 -1.016629540572794e-09    5    2    5    1
 -4.397370059799476e-08    5    2    5    2
 -7.554565711861005e-05    5    3    1    1
 2.955163005100633e-08    5    3    2    1
 -7.546708191538775e-05    5    3    2    2
 -2.756428702538488e-08    5    3    3    1
 8.607064782957779e-08    5    3    3    2
 -7.498937528761133e-05    5    3    3    3
 -8.413536555242926e-09    5    3    4    1
 2.239339177800929e-08    5    3    4    2
 6.050397647170922e-10    5    3    4    3
 -7.483556353924676e-05    5    3    4    4
 2.701051066749444e-10    5    3    5    1
 1.168323427255088e-08    5    3    5    2
 -3.104081785500823e-09    5    3    5    3
 0.0001669728732053557    5    4    1    1
 -6.531574104619801e-08    5    4    2    1
 0.0001667992043546879    5    4    2    2
 6.092326651229652e-08    5    4    3    1
 -1.902354670657129e-07    5    4    3    2
 0.0001657433653927764    5    4    3    3
 1.859580584813958e-08    5    4    4    1
 -4.949442639855301e-08    5    4    4    2
 -1.337273799327958e-09    5    4    4    3
 0.0001654034068758112    5    4    4    4
 -5.969929635813271e-10    5    4    5    1
 -2.582257232545146e-08    5    4    5    2
 6.860718063193745e-09    5    4    5    3
 -1.516372814739985e-08    5    4    5    4
 -1.637166090907439    5    5    1    1
 0.0006404196944718583    5    5    2    1
 -1.635463270875045    5    5    2    2
 -0.0005973515587684677    5    5    3    1
 0.001865255415380741    5    5    3    2
 -1.625110788386615    5    5    3    3
 -0.0001823315499291993    5    5    4    1
 0.0004852919820632215    5    5    4    2
 1.311194612930321e-05    5    5    4    3
 -1.621777501095061    5    5    4    4
 5.853505528910485e-06    5    5    5    1
 0.0002531898683880232    5    5    5    2
 -6.726922018358478e-05    5    5    5    3
 0.0001486800883166842    5    5    5    4
 -1.45780565616685    5    5    5    5
 6.628235527876213e-05    6    1    1    1
 -2.592805088759726e-08    6    1    2    1
 6.62134148560464e-05    6    1    2    2
 2.418439305853729e-08    6    1    3    1
 -7.551678648522316e-08    6    1    3    2
 6.579428394066396e-05    6    1    3    3
 7.381880578918599e-09    6    1    4    1
 -1.964754568744796e-08    6    1    4    2
 -5.308506428061565e-10    6    1    4    3
 6.565933237177178e-05    6    1    4    4
 -2.369851997596064e-10    6    1    5    1
 -1.025065257745235e-08    6    1    5    2
 2.723463658511456e-09    6    1    5    3
 -6.01946649849182e-09    6    1    5    4
 5.902076335815287e-05    6    1    5    5
 -2.38951638899416e-09    6    1    6    1
 -0.0001370373376030531    6    2    1    1
 5.360568507149538e-08    6    2    2    1
 -0.0001368948047684481    6    2    2    2
 -5.000071017918415e-08    6    2    3    1
 1.561293246256966e-07    6    2    3    2
 -0.0001360282606556206    6    2    3    3
 -1.526187862190799e-08    6    2    4    1
 4.062087625159149e-08    6    2    4    2
 1.097522235730507e-09    6    2    4    3
 -0.0001357492512023723    6    2    4    4
 4.899617807756864e-10    6    2    5    1
 2.119300275314828e-08    6    2    5    2
 -5.630702277422914e-09    6    2    5    3
 1.244511694364016e-08    6    2    5    4
 -0.0001220241531835343    6    2    5    5
 4.940273512150579e-09    6    2    6    1
 -1.021390875880539e-08    6    2    6    2
 -0.0001155811699716087    6    3    1    1
 4.52125523311207e-08    6    3    2    1
 -0.0001154609537438917    6    3    2    2
 -4.217201445246438e-08    6    3    3    1
 1.316838923081017e-07    6    3    3    2
 -0.0001147300859078372    6    3    3    3
 -1.287230048349626e-08    6    3    4    1
 3.426079698097059e-08    6    3    4    2
 9.256813237498087e-10    6    3    4    3
 -0.0001144947614363929    6    3    4    4
 4.132476364030841e-10    6    3    5    1
 1.787477848202043e-08    6    3    5    2
 -4.749093702268835e-09    6    3    5    3
 1.049656394336865e-08    6    3    5    4
 -0.0001029186252187772    6    3    5    5
 4.166766536052381e-09    6    3    6    1
 -8.614699796237753e-09    6    3    6    2
 -7.265881684650828e-09    6    3    6    3
 -9.836479443495174e-05    6    4    1    1
 3.847792349758012e-08    6    4    2    1
 -9.826248499709064e-05    6    4    2    2
 -3.589028847468736e-08    6    4    3    1
 1.120689382229412e-07    6    4    3    2
 -9.764048346803298e-05    6    4    3    3
 -1.095490892915476e-08    6    4    4    1
 2.915748519450311e-08    6    4    4    2
 7.877966034199563e-10    6    4    4    3
 -9.744021171732461e-05    6    4    4    4
 3.516923977798506e-10    6    4    5    1
 1.521224358073287e-08    6    4    5    2
 -4.041693174508756e-09    6    4    5    3
 8.933049862848519e-09    6    4    5    4
 -8.758839710360796e-05    6    4    5    5
 3.546106462479166e-09    6    4    6    1
 -7.331498502601215e-09    6    4    6    2
 -6.183593387010403e-09    6    4    6    3
 -5.262517177599212e-09    6    4    6    4
 4.894071495877755e-05    6    5    1    1
 -1.914442150686369e-08    6    5    2    1
 4.888981161409301e-05    6    5    2    2
 1.785696181360435e-08    6    5    3    1
 -5.575911577722314e-08    6    5    3    2
 4.858033910706032e-05    6    5    3    3
 5.45053825792878e-09    6    5    4    1
 -1.450710266835028e-08    6    5    4    2
 -3.919626857849468e-10    6    5    4    3
 4.848069529931366e-05    6    5    4    4
 -1.749820908159867e-10    6    5    5    1
 -7.568745314264721e-09    6    5    5    2
 2.010916148818665e-09    6    5    5    3
 -4.444576431655516e-09    6    5    5    4
 4.357899389683196e-05    6    5    5    5
 -1.764340449147577e-09    6    5    6    1
 3.647735762552643e-09    6    5    6    2
 3.076603607145079e-09    6    5    6    3
 2.618328586299969e-09    6    5    6    4
 -1.302731060910878e-09    6    5    6    5
 -1.38003539276526    6    6    1    1
 0.0005398363974817292    6    6    2    1
 -1.378600014934469    6    6    2    2
 -0.0005035324745622002    6    6    3    1
 0.001572301371295708    6    6    3    2
 -1.369873476853598    6    6    3    3
 -0.000153694847161501    6    6    4    1
 0.0004090727964572206    6    6    4    2
 1.105260475828963e-05    6    6    4    3
 -1.367063710353944    6    6    4    4
 4.9341632754965e-06    6    6    5    1
 0.0002134242710044051    6    6    5    2
 -5.670402362512369e-05    6    6    5    3
 0.0001253286305012345    6    6    5    4
 -1.22884502217398    6    6    5    5
 4.975105628844792e-05    6    6    6    1
 -0.0001028592340757244    6    6    6    2
 -8.675438989695377e-05    6    6    6    3
 -7.383190298765538e-05    6    6    6    4
 3.673454653913299e-05    6    6    6    5
 -1.035844580609129    6    6    6    6
 0.0003122644618399711    7    1    1    1
 -1.221502890615804e-07    7    1    2    1
 0.0003119396748901447    7    1    2    2
 1.139356990498214e-07    7    1    3    1
 -3.557690216728207e-07    7    1    3    2
 0.0003099650967511815    7    1    3    3
 3.477696223449325e-08    7    1    4    1
 -9.256204392199992e-08    7    1    4    2
 -2.500903741207508e-09    7    1    4    3
 0.0003093293230395006    7    1    4    4
 -1.116466902175816e-09    7    1    5    1
 -4.829210575189548e-08    7    1    5    2
 1.283057776219806e-08    7    1    5    3
 -2.835845918283998e-08    7    1    5    4
 0.0002780541945123543    7    1    5    5
 -1.125731042792529e-08    7    1    6    1
 2.327424611159299e-08    7    1    6    2
 1.963015804916784e-08    7    1    6    3
 1.670615085230852e-08    7    1    6    4
 -8.312028420512323e-09    7    1    6    5
 0.0002343834456778889    7    1    6    6
 -5.303459673026974e-08    7    1    7    1
 -0.000802943617219805    7    2    1    1
 3.140920819663777e-07    7    2    2    1
 -0.0008021084738071264    7    2    2    2
 -2.929694329812672e-07    7    2    3    1
 9.148094005748936e-07    7    2    3    2
 -0.0007970311271758773    7    2    3    3
 -8.942400838042544e-08    7    2    4    1
 2.380101210559624e-07    7    2    4    2
 6.430718002469527e-09    7    2    4    3
 -0.0007953963255696275    7    2    4    4
 2.870835725772027e-09    7    2    5    1
 1.241762762470865e-07    7    2    5    2
 -3.299200446536552e-08    7    2    5    3
 7.291974136563523e-08    7    2    5    4
 -0.0007149767841314783    7    2    5    5
 2.894657144749577e-08    7    2    6    1
 -5.984641111829023e-08    7    2    6    2
 -5.047615734983268e-08    7    2    6    3
 -4.295748903391614e-08    7    2    6    4
 2.137319798440693e-08    7    2    6    5
 -0.00060268366941318    7    2    6    6
 1.363709167718837e-07    7    2    7    1
 -3.506584020198668e-07    7    2    7    2
 0.0007373033125127754    7    3    1    1
 -2.884151857011381e-07    7    3    2    1
 0.0007365364417246075    7    3    2    2
 2.6901930443141e-07    7    3    3    1
 -8.400241148902018e-07    7    3    3    2
 0.0007318741660557899    7    3    3    3
 8.211363311577078e-08    7    3    4    1
 -2.185528932576476e-07    7    3    4    2
 -5.905009496771939e-09    7    3    4    3
 0.0007303730087967501    7    3    4    4
 -2.636146106523265e-09    7    3    5    1
 -1.140249176268323e-07    7    3    5    2
 3.029492190619302e-08    7    3    5    3
 -6.695858302307172e-08    7    3    5    4
 0.0006565277312187191    7    3    5    5
 -2.658020134467768e-08    7    3    6    1
 5.495399205276634e-08    7    3    6    2
 4.634975260879348e-08    7    3    6    3
 3.944573228143257e-08    7    3    6    4
 -1.962594799303403e-08    7    3    6    5
 0.0005534145316383386    7    3    6    6
 -1.252226513917105e-07    7    3    7    1
 3.219922243916521e-07    7    3    7    2
 -2.95669494788861e-07    7    3    7    3
 0.0001693257904965173    7    4    1    1
 -6.623614526244276e-08    7    4    2    1
 0.000169149674371428    7    4    2    2
 6.178177367254065e-08    7    4    3    1
 -1.929161918521356e-07    7    4    3    2
 0.0001680789569343334    7    4    3    3
 1.885785076766285e-08    7    4    4    1
 -5.019188275450422e-08    7    4    4    2
 -1.356118145632992e-09    7    4    4    3
 0.0001677342078531442    7    4    4    4
 -6.054055580329343e-10    7    4    5    1
 -2.618645404923348e-08    7    4    5    2
 6.957396654456955e-09    7    4    5    3
 -1.537740955247889e-08    7    4    5    4
 0.0001507752307427324    7    4    5    5
 -6.104290497360505e-09    7    4    6    1
 1.262048872879948e-08    7    4    6    2
 1.064447747163216e-08    7    4    6    3
 9.05893095407986e-09    7    4    6    4
 -4.507207687482684e-09    7    4    6    5
 0.0001270947131955251    7    4    6    6
 -2.875807564556912e-08    7    4    7    1
 7.394729821982686e-08    7    4    7    2
 -6.790213753442557e-08    7    4    7    3
 -1.559410207345384e-08    7    4    7    4
 -8.166689143418813e-05    7    5    1    1
 3.194610855378832e-08    7    5    2    1
 -8.15819495217641e-05    7    5    2    2
 -2.979773718068004e-08    7    5    3    1
 9.304469005983459e-08    7    5    3    2
 -8.10655357820998e-05    7    5    3    3
 -9.095259775898615e-09    7    5    4    1
 2.420786005351147e-08    7    5    4    2
 6.540642925418767e-10    7    5    4    3
 -8.089926113661945e-05    7    5    4    4
 2.919909001254386e-10    7    5    5    1
 1.26298911324386e-08    7    5    5    2
 -3.355596070616343e-09    7    5    5    3
 7.416621134789098e-09    7    5    5    4
 -7.271984004282356e-05    7    5    5    5
 2.944137617009624e-09    7    5    6    1
 -6.086940919271646e-09    7    5    6    2
 -5.133898288620851e-09    7    5    6    3
 -4.369179252417909e-09    7    5    6    4
 2.17385455461704e-09    7    5    6    5
 -6.129857781240763e-05    7    5    6    6
 1.387020036768214e-08    7    5    7    1
 -3.566524601988698e-08    7    5    7    2
 3.274962708228e-08    7    5    7    3
 7.521133297603561e-09    7    5    7    4
 -3.627489791580705e-09    7    5    7    5
 0.01118908979230038    7    6    1    1
 -4.376900734742481e-06    7    6    2    1
 0.01117745199553167    7    6    2    2
 4.082554766896986e-06    7    6    3    1
 -1.274794930348292e-05    7    6    3    2
 0.01110669872451078    7    6    3    3
 1.246131406861878e-06    7    6    4    1
 -3.316691930614632e-06    7    6    4    2
 -8.961261988555631e-08    7    6    4    3
 0.01108391762061675    7    6    4    4
 -4.000534785472481e-08    7    6    5    1
 -1.730407310307846e-06    7    6    5    2
 4.597464784253839e-07    7    6    5    3
 -1.016142997183873e-06    7    6    5    4
 0.00996326425105303    7    6    5    5
 -4.033730141933609e-07    7    6    6    1
 8.339649925458824e-07    7    6    6    2
 7.033896837154024e-07    7    6    6    3
 5.986163807074253e-07    7    6    6    4
 -2.978373901572144e-07    7    6    6    5
 0.008398449839811296    7    6    6    6
 -1.900340696526433e-06    7    6    7    1
 4.886455614667116e-06    7    6    7    2
 -4.486989912959835e-06    7    6    7    3
 -1.030462092151057e-06    7    6    7    4
 4.969983341579614e-07    7    6    7    5
 -6.80931879475042e-05    7    6    7    6
 -1.29191289227577    7    7    1    1
 0.0005053650111314458    7    7    2    1
 -1.290569170850502    7    7    2    2
 -0.0004713792841667872    7    7    3    1
 0.001471901679310798    7    7    3    2
 -1.28239986801181    7    7    3    3
 -0.0001438806247761908    7    7    4    1
 0.0003829513521124124    7    7    4    2
 1.034683795453244e-05    7    7    4    3
 -1.279769519845221    7    7    4    4
 4.619091062174969e-06    7    7    5    1
 0.0001997960115230517    7    7    5    2
 -5.308317420643674e-05    7    7    5    3
 0.000117325739879305    7    7    5    4
 -1.150376820100518    7    7    5    5
 4.657419031449146e-05    7    7    6    1
 -9.629113230622994e-05    7    7    6    2
 -8.12146669259067e-05    7    7    6    3
 -6.911734860645754e-05    7    7    6    4
 3.438885300667249e-05    7    7    6    5
 -0.9697004693491568    7    7    6    6
 0.0002194168329266808    7    7    7    1
 -0.0005641991550077571    7    7    7    2
 0.0005180761101812843    7    7    7    3
 0.0001189790489274205    7    7    7    4
 -5.738434200251633e-05    7    7    7    5
 0.007862164753211521    7    7    7    6
 -0.9077800066328688    7    7    7    7
 -0.0003407289995616887    8    1    1    1
 1.332849263178773e-07    8    1    2    1
 -0.0003403746065839122    8    1    2    2
 -1.243215334938818e-07    8    1    3    1
 3.881992273962909e-07    8    1    3    2
 -0.0003382200353276098    8    1    3    3
 -3.794706410116348e-08    8    1    4    1
 1.00999557993566e-07    8    1    4    2
 2.728874188006633e-09    8    1    4    3
 -0.0003375263075192884    8    1    4    4
 1.218238695433245e-09    8    1    5    1
 5.269418358597331e-08    8    1    5    2
 -1.400015198320145e-08    8    1    5    3
 3.094348095055353e-08    8    1    5    4
 -0.0003034002875699587    8    1    5    5
 1.228347310885491e-08    8    1    6    1
 -2.539581528563342e-08    8    1    6    2
 -2.14195495507859e-08    8    1    6    3
 -1.82290038158453e-08    8    1    6    4
 9.069713253187512e-09    8    1    6    5
 -0.000255748721737588    8    1    6    6
 5.786897740327185e-08    8    1    7    1
 -1.488018385672297e-07    8    1    7    2
 1.366373505321442e-07    8    1    7    3
 3.137952454242376e-08    8    1    7    4
 -1.513454162267901e-08    8    1    7    5
 2.073566682992067e-06    8    1    7    6
 -0.0002394178240123145    8    1    7    7
 -6.31440371411195e-08    8    1    8    1
 0.0005803406056966513    8    2    1    1
 -2.270151791278788e-07    8    2    2    1
 0.0005797369921631927    8    2    2    2
 2.117484397916717e-07    8    2    3    1
 -6.611934265880811e-07    8    2    3    2
 0.0005760672570085455    8    2    3    3
 6.463266171416506e-08    8    2    4    1
 -1.720257000034691e-07    8    2    4    2
 -4.647906404127238e-09    8    2    4    3
 0.0005748856774629599    8    2    4    4
 -2.074943381104155e-09    8    2    5    1
 -8.975043057184148e-08    8    2    5    2
 2.384550975182062e-08    8    2    5    3
 -5.270393333208591e-08    8    2    5    4
 0.0005167611412101418    8    2    5    5
 -2.092160700504365e-08    8    2    6    1
 4.325497050143645e-08    8    2    6    2
 3.648246664077081e-08    8    2    6    3
 3.10482263891333e-08    8    2    6    4
 -1.544782771534201e-08    8    2    6    5
 0.0004355994596006335    8    2    6    6
 -9.856430606277269e-08    8    2    7    1
 2.534440838143184e-07    8    2    7    2
 -2.327251360189955e-07    8    2    7    3
 -5.344661682113764e-08    8    2    7    4
 2.577763872034766e-08    8    2    7    5
 -3.53176555652153e-06    8    2    7    6
 0.000407784148636063    8    2    7    7
 1.075489576987839e-07    8    2    8    1
 -1.831808485137638e-07    8    2    8    2
 -0.0005559370916291058    8    3    1    1
 2.174691158971131e-07    8    3    2    1
 -0.0005553588602440107    8    3    2    2
 -2.028443479902261e-07    8    3    3    1
 6.333900247087775e-07    8    3    3    2
 -0.0005518434386641705    8    3    3    3
 -6.19148369507593e-08    8    3    4    1
 1.647919625244787e-07    8    3    4    2
 4.4524604053386e-09    8    3    4    3
 -0.000550711544928573    8    3    4    4
 1.987691326891522e-09    8    3    5    1
 8.597639533541536e-08    8    3    5    2
 -2.284279819422078e-08    8    3    5    3
 5.04877155353989e-08    8    3    5    4
 -0.0004950311646148554    8    3    5    5
 2.00418465232654e-08    8    3    6    1
 -4.143608471133048e-08    8    3    6    2
 -3.494836687393114e-08    8    3    6    3
 -2.974263821897607e-08    8    3    6    4
 1.479824145985013e-08    8    3    6    5
 -0.0004172823585123537    8    3    6    6
 9.441964445207399e-08    8    3    7    1
 -2.427866764159962e-07    8    3    7    2
 2.229389672157729e-07    8    3    7    3
 5.119916893854178e-08    8    3    7    4
 -2.469368050173396e-08    8    3    7    5
 3.383253648866233e-06    8    3    7    6
 -0.0003906366905569986    8    3    7    7
 -1.030264885205307e-07    8    3    8    1
 1.754780333570605e-07    8    3    8    2
 -1.680991241207613e-07    8    3    8    3
 -0.0002671316252590693    8    4    1    1
 1.044954172837326e-07    8    4    2    1
 -0.000266853781071297    8    4    2    2
 -9.746811495246642e-08    8    4    3    1
 3.043482963648527e-07    8    4    3    2
 -0.0002651645966397602    8    4    3    3
 -2.975050823437902e-08    8    4    4    1
 7.918368002717329e-08    8    4    4    2
 2.139438081012464e-09    8    4    4    3
 -0.0002646207138556046    8    4    4    4
 9.550994575841285e-10    8    4    5    1
 4.131225378857823e-08    8    4    5    2
 -1.097612283649919e-08    8    4    5    3
 2.425969720255046e-08    8    4    5    4
 -0.0002378659052410903    8    4    5    5
 9.63024614757046e-09    8    4    6    1
 -1.991032586236369e-08    8    4    6    2
 -1.679293248059054e-08    8    4    6    3
 -1.429154378536807e-08    8    4    6    4
 7.110657575593503e-09    8    4    6    5
 -0.0002005070650974113    8    4    6    6
 4.536929350217385e-08    8    4    7    1
 -1.166606805676519e-07    8    4    7    2
 1.071237187492062e-07    8    4    7    3
 2.46015554932444e-08    8    4    7    4
 -1.186548461216407e-08    8    4    7    5
 1.625676824758928e-06    8    4    7    6
 -0.0001877036369862033    8    4    7    7
 -4.950494172384759e-08    8    4    8    1
 8.43184111183753e-08    8    4    8    2
 -8.077279409333468e-08    8    4    8    3
 -3.881188732998556e-08    8    4    8    4
 0.0008221238989329574    8    5    1    1
 -3.215949432965451e-07    8    5    2    1
 0.0008212688060673133    8    5    2    2
 2.999677279268965e-07    8    5    3    1
 -9.366618714589077e-07    8    5    3    2
 0.0008160701745330454    8    5    3    3
 9.156012060031869e-08    8    5    4    1
 -2.436955777611684e-07    8    5    4    2
 -6.584331506878928e-09    8    5    4    3
 0.0008143963216725352    8    5    4    4
 -2.939412692811517e-09    8    5    5    1
 -1.271425317965827e-07    8    5    5    2
 3.378009957734644e-08    8    5    5    3
 -7.466160860493909e-08    8    5    5    4
 0.0007320557618378933    8    5    5    5
 -2.963803144927671e-08    8    5    6    1
 6.127598973396502e-08    8    5    6    2
 5.168190442472595e-08    8    5    6    3
 4.398363423725337e-08    8    5    6    4
 -2.188374934774074e-08    8    5    6    5
 0.0006170802500887781    8    5    6    6
 -1.396284712814054e-07    8    5    7    1
 3.590347397745805e-07    8    5    7    2
 -3.296838000400901e-07    8    5    7    3
 -7.571371118004664e-08    8    5    7    4
 3.651719807649466e-08    8    5    7    5
 -5.003180616595307e-06    8    5    7    6
 0.0005776764384723655    8    5    7    7
 1.523563361956403e-07    8    5    8    1
 -2.594982186524812e-07    8    5    8    2
 2.48586232885456e-07    8    5    8    3
 1.194474076430641e-07    8    5    8    4
 -3.676111669433143e-07    8    5    8    5
 0.001269000545901809    8    6    1    1
 -4.964022565606356e-07    8    6    2    1
 0.001267680655658123    8    6    2    2
 4.630192735987766e-07    8    6    3    1
 -1.445797194012266e-06    8    6    3    2
 0.00125965623712037    8    6    3    3
 1.413288716888196e-07    8    6    4    1
 -3.761596294843333e-07    8    6    4    2
 -1.016333461105476e-08    8    6    4    3
 0.00125707253873075    8    6    4    4
 -4.537170512435795e-09    8    6    5    1
 -1.962525873127035e-07    8    6    5    2
 5.214173296738805e-08    8    6    5    3
 -1.152449432506996e-07    8    6    5    4
 0.001129974645681244    8    6    5    5
 -4.574818727128942e-08    8    6    6    1
 9.458338885902706e-08    8    6    6    2
 7.977430775743622e-08    8    6    6    3
 6.789153791814474e-08    8    6    6    4
 -3.37789594788633e-08    8    6    6    5
 0.0009525026279423887    8    6    6    6
 -2.155254293294605e-07    8    6    7    1
 5.541929645434193e-07    8    6    7    2
 -5.088879216002078e-07    8    6    7    3
 -1.16868930515747e-07    8    6    7    4
 5.636661864959886e-08    8    6    7    5
 -7.722727610698384e-06    8    6    7    6
 0.0008916803376322062    8    6    7    7
 2.351716986391035e-07    8    6    8    1
 -4.0055201114814e-07    8    6    8    2
 3.837086668381132e-07    8    6    8    3
 1.843746735769873e-07    8    6    8    4
 -5.674312255563214e-07    8    6    8    5
 -8.758661996413029e-07    8    6    8    6
 -0.001776089405502739    8    7    1    1
 6.947631280316241e-07    8    7    2    1
 -0.001774242091026957    8    7    2    2
 -6.480404039521502e-07    8    7    3    1
 2.023533470558918e-06    8    7    3    2
 -0.001763011138608337    8    7    3    3
 -1.978034702260359e-07    8    7    4    1
 5.264719033121536e-07    8    7    4    2
 1.422457301989116e-08    8    7    4    3
 -0.001759395001994638    8    7    4    4
 6.35021041096071e-09    8    7    5    1
 2.746745399395191e-07    8    7    5    2
 -7.297741502713039e-08    8    7    5    3
 1.612964812397909e-07    8    7    5    4
 -0.001581509167322665    8    7    5    5
 6.402902740735181e-08    8    7    6    1
 -1.323786309088487e-07    8    7    6    2
 -1.116518848607834e-07    8    7    6    3
 -9.502079538824491e-08    8    7    6    4
 4.727693163967941e-08    8    7    6    5
 -0.001333119856934159    8    7    6    6
 3.016487525436491e-07    8    7    7    1
 -7.756468317594386e-07    8    7    7    2
 7.122380278411479e-07    8    7    7    3
 1.635694090060048e-07    8    7    7    4
 -7.889055251463666e-08    8    7    7    5
 1.080870669066423e-05    8    7    7    6
 -0.001247993159560238    8    7    7    7
 -3.291456128808563e-07    8    7    8    1
 5.606114084430575e-07    8    7    8    2
 -5.370375136335775e-07    8    7    8    3
 -2.580502470551732e-07    8    7    8    4
 7.941750626638387e-07    8    7    8    5
 1.225859738866664e-06    8    7    8    6
 -1.715709659751309e-06    8    7    8    7
 -1.202017276713054    8    8    1    1
 0.0004702000251398238    8    8    2    1
 -1.200767055914177    8    8    2    2
 -0.0004385791386096139    8    8    3    1
 0.001369481842570838    8    8    3    2
 -1.193166200462141    8    8    3    3
 -0.0001338689301726632    8    8    4    1
 0.000356304317521633    8    8    4    2
 9.626870398985306e-06    8    8    4    3
 -1.19071888070946    8    8    4    4
 4.297679272837605e-06    8    8    5    1
 0.000185893537486122    8    8    5    2
 -4.938946958452165e-05    8    8    5    3
 0.0001091618228916648    8    8    5    4
 -1.070329757337758    8    8    5    5
 4.333340253948825e-05    8    8    6    1
 -8.959087359401026e-05    8    8    6    2
 -7.556347904808898e-05    8    8    6    3
 -6.430793255666868e-05    8    8    6    4
 3.199596171499646e-05    8    8    6    5
 -0.902225470744538    8    8    6    6
 0.000204149076579719    8    8    7    1
 -0.000524940292709352    8    8    7    2
 0.0004820266434474672    8    8    7    3
 0.0001107000891722035    8    8    7    4
 -5.339134775435905e-05    8    8    7    5
 0.007315089060747205    8    8    7    6
 -0.8446136407116827    8    8    7    7
 -0.0002227583318786306    8    8    8    1
 0.000379409165092257    8    8    8    2
 -0.0003634548844391393    8    8    8    3
 -0.0001746425907723897    8    8    8    4
 0.0005374797817604156    8    8    8    5
 0.0008296342404720329    8    8    8    6
 -0.00116115362574378    8    8    8    7
 -0.7858426015817196    8    8    8    8
 -2.999588785882084e-05    9    1    1    1
 1.173366431461116e-08    9    1    2    1
 -2.996468907024398e-05    9    1    2    2
 -1.094457701550528e-08    9    1    3    1
 3.417490294879545e-08    9    1    3    2
 -2.977501258872633e-05    9    1    3    3
 -3.340648670392062e-09    9    1    4    1
 8.891439881147864e-09    9    1    4    2
 2.402349205046758e-10    9    1    4    3
 -2.971394064718414e-05    9    1    4    4
 1.072469655958035e-10    9    1    5    1
 4.638903127383582e-09    9    1    5    2
 -1.232495588678319e-09    9    1    5    3
 2.724092125261993e-09    9    1    5    4
 -2.670967547226574e-05    9    1    5    5
 1.081368719316606e-09    9    1    6    1
 -2.235706465757602e-09    9    1    6    2
 -1.885658124604382e-09    9    1    6    3
 -1.604780206385422e-09    9    1    6    4
 7.984471588982451e-10    9    1    6    5
 -2.251469639257564e-05    9    1    6    6
 5.09446322128773e-09    9    1    7    1
 -1.309968704921144e-08    9    1    7    2
 1.202879311464818e-08    9    1    7    3
 2.762478980211511e-09    9    1    7    4
 -1.332360949295556e-09    9    1    7    5