 &FCI NORB=  25,NELEC=40,MS2=0,
  ORBSYM=1,1,1,1,1,1,1,1,1,1,1,1,1,1,1,1,1,1,1,1,1,1,1,1,1,
  ISYM=1,
 &END
 -1.046747769135493    1    1    1    1
 -0.002305091102510949    2    1    1    1
 -5.076146467704563e-06    2    1    2    1
 -0.9309353323588234    2    2    1    1
 -0.002050055242444589    2    2    2    1
 -0.8279364127518426    2    2    2    2
 -0.001762386286414097    3    1    1    1
 -3.881031388636203e-06    3    1    2    1
 -0.001567395423868491    3    1    2    2
 -2.967291179525977e-06    3    1    3    1
 0.004778279289661695    3    2    1    1
 1.052246720813035e-05    3    2    2    1
 0.004249609265753022    3    2    2    2
 8.045084155960499e-06    3    2    3    1
 -2.181227765010362e-05    3    2    3    2
 -0.873922209569174    3    3    1    1
 -0.001924504039046922    3    3    2    1
 -0.7772312362250909    3    3    2    2
 -0.00147140367808902    3    3    3    1
 0.003989351129172779    3    3    3    2
 -0.7296313886668585    3    3    3    3
 -0.04440632354854659    4    1    1    1
 -9.778919461325201e-05    4    1    2    1
 -0.03949319672841705    4    1    2    2
 -7.476595409098465e-05    4    1    3    1
 0.0002027095948026472    4    1    3    2
 -0.03707452123489179    4    1    3    3
 -0.001883855527799986    4    1    4    1
 -0.003298863668254208    4    2    1    1
 -7.264578453665442e-06    4    2    2    1
 -0.002933876561255121    4    2    2    2
 -5.554224485696014e-06    4    2    3    1
 1.50589209838518e-05    4    2    3    2
 -0.002754197631019778    4    2    3    3
 -0.0001399481438742637    4    2    4    1
 -1.039648884156164e-05    4    2    4    2
 0.006784087585360072    4    3    1    1
 1.493954932866263e-05    4    3    2    1
 0.006033494426498308    4    3    2    2
 1.142221963954626e-05    4    3    3    1
 -3.096855437786487e-05    4    3    3    2
 0.005663986098012177    4    3    3    3
 0.0002878022740339707    4    3    4    1
 2.138029878591847e-05    4    3    4    2
 -4.396841887119002e-05    4    3    4    3
 -0.9020834441042154    4    4    1    1
 -0.001986519180685146    4    4    2    1
 -0.8022767046794129    4    4    2    2
 -0.001518818131710429    4    4    3    1
 0.004117903821347371    4    4    3    2
 -0.7531430015259776    4    4    3    3
 -0.03826920913312588    4    4    4    1
 -0.002842948785978154    4    4    4    2
 0.005846502160841194    4    4    4    3
 -0.7774122516630747    4    4    4    4
 0.001908015727312013    5    1    1    1
 4.201728636222698e-06    5    1    2    1
 0.001696912386752029    5    1    2    2
 3.212484278667044e-06    5    1    3    1
 -8.709865263618988e-06    5    1    3    2
 0.001592988654451486    5    1    3    3
 8.094401174860799e-05    5    1    4    1
 6.013180965733527e-06    5    1    4    2
 -1.236606008629868e-05    5    1    4    3
 0.001644321057517185    5    1    4    4
 -3.477938165253255e-06    5    1    5    1
 -0.08507313305734847    5    2    1    1
 -0.0001873434344504927    5    2    2    1
 -0.07566062019215783    5    2    2    2
 -0.0001432357703197028    5    2    3    1
 0.0003883487519923801    5    2    3    2
 -0.07102694900210169    5    2    3    3
 -0.003609069140842996    5    2    4    1
 -0.0002681110732332469    5    2    4    2
 0.0005513683456891304    5    2    4    3
 -0.07331571858279769    5    2    4    4
 0.0001550716233951845    5    2    5    1
 -0.006914213893353435    5    2    5    2
 0.01345378041193459    5    3    1    1
 2.962718473075772e-05    5    3    2    1
 0.01196525075913082    5    3    2    2
 2.265183532992156e-05    5    3    3    1
 -6.141491026352766e-05    5    3    3    2
 0.01123246483187339    5    3    3    3
 0.0005707515635948153    5    3    4    1
 4.240007832857343e-05    5    3    4    2
 -8.719543271073559e-05    5    3    4    3
 0.01159441933202613    5    3    4    4
 -2.452360098075382e-05    5    3    5    1
 0.001093439398542151    5    3    5    2
 -0.0001729205570908896    5    3    5    3
 -0.009144520747132779    5    4    1    1
 -2.013756707439815e-05    5    4    2    1
 -0.008132768668831289    5    4    2    2
 -1.53964292409067e-05    5    4    3    1
 4.174365151596312e-05    5    4    3    2
 -0.007634694825655711    5    4    3    3
 -0.0003879392523845155    5    4    4    1
 -2.881928975230899e-05    5    4    4    2
 5.926664618155745e-05    5    4    4    3
 -0.007880714928171167    5    4    4    4
 1.666866643400802e-05    5    4    5    1
 -0.0007432096377038694    5    4    5    2
 0.0001175339252988428    5    4    5    3
 -7.988768847705057e-05    5    4    5    4
 -1.108235584804496    5    5    1    1
 -0.002440496231607641    5    5    2    1
 -0.9856201206179059    5    5    2    2
 -0.001865911974561635    5    5    3    1
 0.00505896386797266    5    5    3    2
 -0.9252579461386606    5    5    3    3
 -0.04701482954913375    5    5    4    1
 -0.003492644755858876    5    5    4    2
 0.007182596891260378    5    5    4    3
 -0.9550734214078686    5    5    4    4
 0.002020095946438163    5    5    5    1
 -0.09007047938858033    5    5    5    2
 0.01424407927323859    5    5    5    3
 -0.009681686072591733    5    5    5    4
 -1.173335303538616    5    5    5    5
 0.006344503038107724    6    1    1    1
 1.397152010658208e-05    6    1    2    1
 0.005642545624253286    6    1    2    2
 1.068210076789487e-05    6    1    3    1
 -2.896190310988024e-05    6    1    3    2
 0.005296980110366702    6    1    3    3
 0.0002691537187584693    6    1    4    1
 1.999493209603681e-05    6    1    4    2
 -4.111942300259498e-05    6    1    4    3
 0.005467669786841479    6    1    4    4
 -1.156478373838434e-05    6    1    5    1
 0.0005156416541393394    6    1    5    2
 -8.154548136085346e-05    6    1    5    3
 5.542638004391286e-05    6    1    5    4
 0.00671719037007192    6    1    5    5
 -3.845503184955678e-05    6    1    6    1
 0.005625514751125369    6    2    1    1
 1.238820313949451e-05    6    2    2    1
 0.005003106382403464    6    2    2    2
 9.471555940923208e-06    6    2    3    1
 -2.567980694259328e-05    6    2    3    2
 0.004696701943131728    6    2    3    3
 0.0002386519804784615    6    2    4    1
 1.77290143575282e-05    6    2    4    2
 -3.645958072199946e-05    6    2    4    3
 0.00484804827981189    6    2    4    4
 -1.025420921435308e-05    6    2    5    1
 0.0004572067684785413    6    2    5    2
 -7.230437207260172e-05    6    2    5    3
 4.914520753882635e-05    6    2    5    4
 0.00595596743921293    6    2    5    5
 -3.409713063817815e-05    6    2    6    1
 -3.023308685077535e-05    6    2    6    2
 -0.06909428000967836    6    3    1    1
 -0.0001521556718637615    6    3    2    1
 -0.06144967146959121    6    3    2    2
 -0.0001163325255130796    6    3    3    1
 0.0003154071849391311    6    3    3    2
 -0.05768631912587632    6    3    3    3
 -0.002931196076011395    6    3    4    1
 -0.0002177531366475507    6    3    4    2
 0.0004478076391031465    6    3    4    3
 -0.05954520077984883    6    3    4    4
 0.0001259453106211515    6    3    5    1
 -0.005615552332745591    6    3    5    2
 0.00088806424850437    6    3    5    3
 -0.0006036163588660189    6    3    5    4
 -0.07315300024609835    6    3    5    5
 0.0004187913099631628    6    3    6    1
 0.0003713319510906169    6    3    6    2
 -0.004560811755059899    6    3    6    3
 -0.00631961562245584    6    4    1    1
 -1.391671439113076e-05    6    4    2    1
 -0.00562041175853648    6    4    2    2
 -1.064019837140304e-05    6    4    3    1
 2.884829501221944e-05    6    4    3    2
 -0.005276201785427063    6    4    3    3
 -0.0002680979165257726    6    4    4    1
 -1.991649850037096e-05    6    4    4    2
 4.095812492054523e-05    6    4    4    3
 -0.00544622190198512    6    4    4    4
 1.151941886455652e-05    6    4    5    1
 -0.000513618960147878    6    4    5    2
 8.122560504005009e-05    6    4    5    3
 -5.520896043674223e-05    6    4    5    4
 -0.006690841023598528    6    4    5    5
 3.830418530479278e-05    6    4    6    1
 3.396337871818874e-05    6    4    6    2
 -0.00041714852827643    6    4    6    3
 -3.81539304818133e-05    6    4    6    4
 -0.004000401276019138    6    5    1    1
 -8.809466482494341e-06    6    5    2    1
 -0.003557795871430692    6    5    2    2
 -6.735387986388704e-06    6    5    3    1
 1.826135687236667e-05    6    5    3    2
 -0.003339906351259145    6    5    3    3
 -0.0001697095696068614    6    5    4    1
 -1.260741012974658e-05    6    5    4    2
 2.592704129239553e-05    6    5    4    3
 -0.003447531360731389    6    5    4    4
 7.291946326770117e-06    6    5    5    1
 -0.0003251276764780248    6    5    5    2
 5.14168951815728e-05    6    5    5    3
 -3.494801091921476e-05    6    5    5    4
 -0.004235391923732726    6    5    5    5
 2.424706199308743e-05    6    5    6    1
 2.149927332279194e-05    6    5    6    2
 -0.0002640606018626835    6    5    6    3
 -2.415194867900573e-05    6    5    6    4
 -1.528850678362569e-05    6    5    6    5
 -1.12338468866213    6    6    1    1
 -0.002473856765580462    6    6    2    1
 -0.9990931238097763    6    6    2    2
 -0.001891418188835355    6    6    3    1
 0.005128117728486335    6    6    3    2
 -0.9379058243636038    6    6    3    3
 -0.04765750205077025    6    6    4    1
 -0.003540387707691312    6    6    4    2
 0.007280779901953358    6    6    4    3
 -0.968128864357868    6    6    4    4
 0.002047709789302059    6    6    5    1
 -0.09130170410783162    6    6    5    2
 0.01443878971136682    6    6    5    3
 -0.009814030557682823    6    6    5    4
 -1.189374292555803    6    6    5    5
 0.006809011473764097    6    6    6    1
 0.006037382952797315    6    6    6    2
 -0.07415297030067917    6    6    6    3
 -0.006782301943055748    6    6    6    4
 -0.004293287909938356    6    6    6    5
 -1.205632527655434    6    6    6    6
 0.001199536547823095    7    1    1    1
 2.641554255049651e-06    7    1    2    1
 0.001066819522096065    7    1    2    2
 2.019633405745685e-06    7    1    3    1
 -5.475741924331441e-06    7    1    3    2
 0.001001484465735551    7    1    3    3
 5.088810277086354e-05    7    1    4    1
 3.7803830617434e-06    7    1    4    2
 -7.774328488889808e-06    7    1    4    3
 0.001033756261341572    7    1    4    4
 -2.186519681453219e-06    7    1    5    1
 9.749085247574981e-05    7    1    5    2
 -1.541756456173855e-05    7    1    5    3
 1.047930281960088e-05    7    1    5    4
 0.00126999944663748    7    1    5    5
 -7.270579882171983e-06    7    1    6    1
 -6.446644304640707e-06    7    1    6    2
 7.917964247068182e-05    7    1    6    3
 7.242059769174878e-06    7    1    6    4
 4.584320767654186e-06    7    1    6    5
 0.001287359792921295    7    1    6    6
 -1.374627175706077e-06    7    1    7    1
 0.01278294035608672    7    2    1    1
 2.814989718399709e-05    7    2    2    1
 0.01136863261599769    7    2    2    2
 2.152235662486677e-05    7    2    3    1
 -5.835260505490783e-05    7    2    3    2
 0.01067238527769553    7    2    3    3
 0.0005422924242991024    7    2    4    1
 4.028590149180679e-05    7    2    4    2
 -8.284764441938916e-05    7    2    4    3
 0.01101629179656257    7    2    4    4
 -2.33007912315384e-05    7    2    5    1
 0.00103891770094305    7    2    5    2
 -0.0001642982938589722    7    2    5    3
 0.0001116733818235296    7    2    5    4
 0.0135338328857857    7    2    5    5
 -7.747941415927133e-05    7    2    6    1
 -6.869909032174234e-05    7    2    6    2
 0.0008437830835215722    7    2    6    3
 7.717548769362555e-05    7    2    6    4
 4.885311669113951e-05    7    2    6    5
 0.01371883456123256    7    2    6    6
 -1.464880518296473e-05    7    2    7    1
 -0.0001561059588235147    7    2    7    2
 -0.01014575145530168    7    3    1    1
 -2.234242297666306e-05    7    3    2    1
 -0.009023222959311326    7    3    2    2
 -1.708217944897886e-05    7    3    3    1
 4.631415082638558e-05    7    3    3    2
 -0.008470615167281231    7    3    3    3
 -0.0004304145994400915    7    3    4    1
 -3.197470474732818e-05    7    3    4    2
 6.575573268133968e-05    7    3    4    3
 -0.008743571933650053    7    3    4    4
 1.849371349327261e-05    7    3    5    1
 -0.0008245834278075689    7    3    5    2
 0.0001304026779120151    7    3    5    3
 -8.86345664293925e-05    7    3    5    4
 -0.01074173084374819    7    3    5    5
 6.149499700888824e-05    7    3    6    1
 5.452610089648444e-05    7    3    6    2
 -0.0006697061246571203    7    3    6    3
 -6.125377219712886e-05    7    3    6    4
 -3.877445767234087e-05    7    3    6    5
 -0.01088856568499846    7    3    6    6
 1.162667839819249e-05    7    3    7    1
 0.0001239004653699086    7    3    7    2
 -9.833913730503646e-05    7    3    7    3
 -0.003688222954540591    7    4    1    1
 -8.122004333106424e-06    7    4    2    1
 -0.003280157038055499    7    4    2    2
 -6.20978018581123e-06    7    4    3    1
 1.683629989858161e-05    7    4    3    2
 -0.003079270908289499    7    4    3    3
 -0.0001564659860453023    7    4    4    1
 -1.162356879461652e-05    7    4    4    2
 2.390377920614499e-05    7    4    4    3
 -0.003178497211610038    7    4    4    4
 6.722906521127323e-06    7    4    5    1
 -0.0002997557686852656    7    4    5    2
 4.740448769394302e-05    7    4    5    3
 -3.222078166519617e-05    7    4    5    4
 -0.003904875695403149    7    4    5    5
 2.235490003444424e-05    7    4    6    1
 1.982153986661313e-05    7    4    6    2
 -0.0002434541702148721    7    4    6    3
 -2.226720905444624e-05    7    4    6    4
 -1.409544137435493e-05    7    4    6    5
 -0.00395825366690299    7    4    6    6
 4.226575265735194e-06    7    4    7    1
 4.50407781492384e-05    7    4    7    2
 -3.574862494277144e-05    7    4    7    3
 -1.299547891430903e-05    7    4    7    4
 -0.004162196239380296    7    5    1    1
 -9.165762565917946e-06    7    5    2    1
 -0.003701689799301203    7    5    2    2
 -7.007798621541025e-06    7    5    3    1
 1.899993167079853e-05    7    5    3    2
 -0.003474987806454921    7    5    3    3
 -0.0001765734194314182    7    5    4    1
 -1.311731284182914e-05    7    5    4    2
 2.697565227078165e-05    7    5    4    3
 -0.003586965675368713    7    5    4    4
 7.586866787836626e-06    7    5    5    1
 -0.0003382773624404679    7    5    5    2
 5.349643523219308e-05    7    5    5    3
 -3.636147215874654e-05    7    5    5    4
 -0.004406691009459057    7    5    5    5
 2.522772674047255e-05    7    5    6    1
 2.236880462716614e-05    7    5    6    2
 -0.0002747404493218961    7    5    6    3
 -2.512876659850705e-05    7    5    6    4
 -1.59068456012199e-05    7    5    6    5
 -0.004466928580500923    7    5    6    6
 4.769732170025954e-06    7    5    7    1
 5.082896553223022e-05    7    5    7    2
 -4.03426783396158e-05    7    5    7    3
 -1.466552703911002e-05    7    5    7    4
 -1.655019293656273e-05    7    5    7    5
 0.0006049174447123576    7    6    1    1
 1.332116351881407e-06    7    6    2    1
 0.0005379892262947332    7    6    2    2
 1.018486248939687e-06    7    6    3    1
 -2.76137631553068e-06    7    6    3    2
 0.0005050412386611271    7    6    3    3
 2.566249536145748e-05    7    6    4    1
 1.906419329940178e-06    7    6    4    2
 -3.920536587557907e-06    7    6    4    3
 0.0005213156674558786    7    6    4    4
 -1.10264576841655e-06    7    6    5    1
 4.916391873969191e-05    7    6    5    2
 -7.774964235396279e-06    7    6    5    3
 5.284635216412112e-06    7    6    5    4
 0.0006404513655213284    7    6    5    5
 -3.666499876040956e-06    7    6    6    1
 -3.250995233791943e-06    7    6    6    2
 3.99297104231873e-05    7    6    6    3
 3.652117393149371e-06    7    6    6    4
 2.31183919285274e-06    7    6    6    5
 0.0006492060602677427    7    6    6    6
 -6.932143585530459e-07    7    6    7    1
 -7.387284543726813e-06    7    6    7    2
 5.863248268584158e-06    7    6    7    3
 2.131430771553292e-06    7    6    7    4
 2.405340797236806e-06    7    6    7    5
 -3.495828944745914e-07    7    6    7    6
 -1.138341227899846    7    7    1    1
 -0.00250679324420292    7    7    2    1
 -1.012394867779767    7    7    2    2
 -0.001916600186277257    7    7    3    1
 0.005196392554372759    7    7    3    2
 -0.9503929317676416    7    7    3    3
 -0.04829200535723999    7    7    4    1
 -0.003587523785120021    7    7    4    2
 0.007377714880134946    7    7    4    3
 -0.9810183558144202    7    7    4    4
 0.002074972624660471    7    7    5    1
 -0.09251727837525865    7    7    5    2
 0.0146310251290674    7    7    5    3
 -0.009944692773927693    7    7    5    4
 -1.205209405366648    7    7    5    5
 0.006899665412975874    7    7    6    1
 0.006117763570352419    7    7    6    2
 -0.0751402294480475    7    7    6    3
 -0.006872600276438027    7    7    6    4
 -0.004350447963597449    7    7    6    5
 -1.221684099648658    7    7    6    6
 0.001304499466846188    7    7    7    1
 0.01390148462712868    7    7    7    2
 -0.01103353406631414    7    7    7    3
 -0.004010953135641859    7    7    7    4
 -0.004526400454437436    7    7    7    5
 0.0006578494715690571    7    7    7    6
 -1.23794937934928    7    7    7    7
 0.0002534080953767908    8    1    1    1
 5.580415484808718e-07    8    1    2    1
 0.0002253709598892568    8    1    2    2
 4.266576584426622e-07    8    1    3    1
 -1.156777869200313e-06    8    1    3    2
 0.0002115686024507129    8    1    3    3
 1.075036623428356e-05    8    1    4    1
 7.986248298999888e-07    8    1    4    2
 -1.642365777665364e-06    8    1    4    3
 0.0002183861806843707    8    1    4    4
 -4.61913218889754e-07    8    1    5    1
 2.059543019958425e-05    8    1    5    2
 -3.257037626762938e-06    8    1    5    3
 2.213805134334125e-06    8    1    5    4
 0.0002682937351813402    8    1    5    5
 -1.535946364927281e-06    8    1    6    1
 -1.36188585314469e-06    8    1    6    2
 1.672709549994688e-05    8    1    6    3
 1.529921348409328e-06    8    1    6    4
 9.684606912889189e-07    8    1    6    5
 0.0002719611951639823    8    1    6    6
 -2.90396866257393e-07    8    1    7    1
 -3.094633362942435e-06    8    1    7    2
 2.456193964070563e-06    8    1    7    3
 8.928851646921438e-07    8    1    7    4
 1.007629777399178e-06    8    1    7    5
 -1.464450004525267e-07    8    1    7    6
 0.000275582037007108    8    1    7    7
 -6.13477904554294e-08    8    1    8    1
 0.004853452338149976    8    2    1    1
 1.068800921388203e-05    8    2    2    1
 0.004316465149225937    8    2    2    2
 8.171651370783558e-06    8    2    3    1
 -2.215543369143768e-05    8    2    3    2
 0.004052112568530036    8    2    3    3
 0.0002058986713039184    8    2    4    1
 1.529583158046704e-05    8    2    4    2
 -3.145575918501964e-05    8    2    4    3
 0.004182687682831135    8    2    4    4
 -8.846890976034877e-06    8    2    5    1
 0.0003944583487308953    8    2    5    2
 -6.238110452452953e-05    8    2    5    3
 4.240037276419361e-05    8    2    5    4
 0.005138552714311184    8    2    5    5
 -2.941753879268829e-05    8    2    6    1
 -2.608380789260775e-05    8    2    6    2
 0.0003203692472568883    8    2    6    3
 2.930214338488628e-05    8    2    6    4
 1.854864896695196e-05    8    2    6    5
 0.00520879452012793    8    2    6    6
 -5.561887624118636e-06    8    2    7    1
 -5.927062238777982e-05    8    2    7    2
 4.704277627808173e-05    8    2    7    3
 1.710117265128508e-05    8    2    7    4
 1.929884320321392e-05    8    2    7    5
 -2.804818957342517e-06    8    2    7    6
 0.005278143462131288    8    2    7    7
 -1.174976579151011e-06    8    2    8    1
 -2.250398834682856e-05    8    2    8    2
 -0.01431548521749147    8    3    1    1
 -3.152478426605282e-05    8    3    2    1
 -0.01273161632800017    8    3    2    2
 -2.410266883254576e-05    8    3    3    1
 6.534849039389551e-05    8    3    3    2
 -0.01195189599750232    8    3    3    3
 -0.0006073077842309377    8    3    4    1
 -4.511577236645699e-05    8    3    4    2
 9.278023646766597e-05    8    3    4    3
 -0.01233703341893257    8    3    4    4
 2.609431970572786e-05    8    3    5    1
 -0.001163473393111664    8    3    5    2
 0.000183995992430437    8    3    5    3
 -0.0001250618873396262    8    3    5    4
 -0.01515640214344046    8    3    5    5
 8.676840986188673e-05    8    3    6    1
 7.69354142756123e-05    8    3    6    2
 -0.0009449441147686166    8    3    6    3
 -8.642804569645048e-05    8    3    6    4
 -5.471010975087875e-05    8    3    6    5
 -0.01536358364286835    8    3    6    6
 1.640504830727687e-05    8    3    7    1
 0.0001748214795382542    8    3    7    2
 -0.0001387548741552759    8    3    7    3
 -5.044071049527593e-05    8    3    7    4
 -5.692284282234977e-05    8    3    7    5
 8.272945014000299e-06    8    3    7    6
 -0.01556813159861807    8    3    7    7
 3.465648507052072e-06    8    3    8    1
 6.63765686913992e-05    8    3    8    2
 -0.0001957808013113795    8    3    8    3
 -0.003396395859647924    8    4    1    1
 -7.479358549905794e-06    8    4    2    1
 -0.003020617766431764    8    4    2    2
 -5.718437299579181e-06    8    4    3    1
 1.550414385793471e-05    8    4    3    2
 -0.002835626558522826    8    4    3    3
 -0.0001440857653482637    8    4    4    1
 -1.070386509029767e-05    8    4    4    2
 2.201241566097119e-05    8    4    4    3
 -0.002927001676003497    8    4    4    4
 6.19096300700841e-06    8    4    5    1
 -0.0002760378817161415    8    4    5    2
 4.36536531866171e-05    8    4    5    3
 -2.967134329761002e-05    8    4    5    4
 -0.003595906160710689    8    4    5    5
 2.058609006441893e-05    8    4    6    1
 1.825317958393202e-05    8    4    6    2
 -0.0002241910930883036    8    4    6    3
 -2.050533754889378e-05    8    4    6    4
 -1.298015312898674e-05    8    4    6    5
 -0.003645060651540826    8    4    6    6
 3.892151561868091e-06    8    4    7    1
 4.147696988682983e-05    8    4    7    2
 -3.292004936801839e-05    8    4    7    3
 -1.196722414092766e-05    8    4    7    4
 -1.350513131367797e-05    8    4    7    5
 1.962783361215399e-06    8    4    7    6
 -0.003693590325488526    8    4    7    7
 8.222364845831887e-07    8    4    8    1
 1.574805880876789e-05    8    4    8    2
 -4.644963777826464e-05    8    4    8    3
 -1.102032903777932e-05    8    4    8    4
 -0.0007421570114651932    8    5    1    1
 -1.634337874163779e-06    8    5    2    1
 -0.0006600445728213881    8    5    2    2
 -1.249553500794491e-06    8    5    3    1
 3.387858643816191e-06    8    5    3    2
 -0.0006196215692368569    8    5    3    3
 -3.148462824254625e-05    8    5    4    1
 -2.338934816437113e-06    8    5    4    2
 4.810001335877929e-06    8    5    4    3
 -0.0006395882300485268    8    5    4    4
 1.352806561202123e-06    8    5    5    1
 -6.031789514867221e-05    8    5    5    2
 9.53889538420288e-06    8    5    5    3
 -6.48357740908234e-06    8    5    5    4
 -0.0007857526272037575    8    5    5    5
 4.498330498361705e-06    8    5    6    1
 3.988558981211679e-06    8    5    6    2
 -4.898869228416982e-05    8    5    6    3
 -4.480685015306059e-06    8    5    6    4
 -2.83633358791285e-06    8    5    6    5
 -0.0007964935277118545    8    5    6    6
 8.504861302078414e-07    8    5    7    1
 9.06326155368509e-06    8    5    7    2
 -7.193462265847258e-06    8    5    7    3
 -2.614995327689934e-06    8    5    7    4
 -2.951048202092116e-06    8    5    7    5
 4.288938903798795e-07    8    5    7    6
 -0.0008070978975417432    8    5    7    7
 1.796694488307516e-07    8    5    8    1
 3.441157257535876e-06    8    5    8    2
 -1.014985466409114e-05    8    5    8    3
 -2.408086336817408e-06    8    5    8    4
 -5.261984270785783e-07    8    5    8    5
 -0.04790120497777214    8    6    1    1
 -0.0001054854327370596    8    6    2    1
 -0.04260140359620698    8    6    2    2
 -8.065020938641184e-05    8    6    3    1
 0.000218663313592885    8    6    3    2
 -0.03999237268952975    8    6    3    3
 -0.002032119359915133    8    6    4    1
 -0.0001509623898193467    8    6    4    2
 0.000310452985519027    8    6    4    3
 -0.04128108531702766    8    6    4    4
 8.731449461819337e-05    8    6    5    1
 -0.003893111315677272    8    6    5    2
 0.0006156710453467384    8    6    5    3
 -0.0004184709780596568    8    6    5    4
 -0.05071500649600116    8    6    5    5
 0.0002903367453665487    8    6    6    1
 0.0002574344490093268    8    6    6    2
 -0.0031618880566315    8    6    6    3
 -0.0002891978490310069    8    6    6    4
 -0.0001830661093017619    8    6    6    5
 -0.05140825882527374    8    6    6    6
 5.48931153711067e-05    8    6    7    1
 0.0005849721052868889    8    6    7    2
 -0.0004642892341822885    8    6    7    3
 -0.0001687802247671215    8    6    7    4
 -0.0001904701601465429    8    6    7    5
 2.76821937129401e-05    8    6    7    6
 -0.05209269902463116    8    6    7    7
 1.159644517771746e-05    8    6    8    1
 0.0002221033778668424    8    6    8    2
 -0.0006551043259692303    8    6    8    3
 -0.0001554256517718861    8    6    8    4
 -3.396254205656915e-05    8    6    8    5
 -0.002192051902071482    8    6    8    6
 0.01291019115613228    8    7    1    1
 2.843012198659125e-05    8    7    2    1
 0.01148180435548101    8    7    2    2
 2.173660600905343e-05    8    7    3    1
 -5.893348984910402e-05    8    7    3    2
 0.01077862605854485    8    7    3    3
 0.0005476908023661494    8    7    4    1
 4.068693701669794e-05    8    7    4    2
 -8.367237087046869e-05    8    7    4    3
 0.01112595607610997    8    7    4    4
 -2.353274446321361e-05    8    7    5    1
 0.001049259852665881    8    7    5    2
 -0.0001659338400445353    8    7    5    3
 0.000112785060888361    8    7    5    4
 0.01366855862293421    8    7    5    5
 -7.82507012938571e-05    8    7    6    1
 -6.938297164812999e-05    8    7    6    2
 0.0008521827215901293    8    7    6    3
 7.794374932039979e-05    8    7    6    4
 4.933943658393948e-05    8    7    6    5
 0.01385540194127023    8    7    6    6
 -1.479463017528415e-05    8    7    7    1
 -0.0001576599524743336    8    7    7    2
 0.0001251338618268379    8    7    7    3
 4.548914721727105e-05    8    7    7    4
 5.133495447916351e-05    8    7    7    5
 -7.46082301313767e-06    8    7    7    6
 0.01403987024040274    8    7    7    7
 -3.125439621932071e-06    8    7    8    1
 -5.986064580242034e-05    8    7    8    2
 0.0001765617812620179    8    7    8    3
 4.188986218347704e-05    8    7    8    4
 9.153483932229859e-06    8    7    8    5
 0.0005907953483224149    8    7    8    6
 -0.0001592294157221209    8    7    8    7
 -0.8674350355177235    8    8    1    1
 -0.001910218336581287    8    8    2    1
 -0.77146180474434    8    8    2    2
 -0.0014604813652616    8    8    3    1
 0.003959737949825774    8    8    3    2
 -0.7242152935500905    8    8    3    3
 -0.03679931496425185    8    8    4    1
 -0.002733753066035774    8    8    4    2
 0.005621942008457607    8    8    4    3
 -0.7475523783755045    8    8    4    4
 0.001581163809459288    8    8    5    1
 -0.07049971193743514    8    8    5    2
 0.01114908560933694    8    8    5    3
 -0.007578022053615517    8    8    5    4
 -0.9183897040075342    8    8    5    5
 0.00525766032704188    8    8    6    1
 0.004661838058635791    8    8    6    2
 -0.05725811031225506    8    8    6    3
 -0.005237036240784948    8    8    6    4
 -0.00331511403727636    8    8    6    5
 -0.9309436963161694    8    8    6    6
 0.0009940503898327893    8    8    7    1
 0.01059316355740686    8    8    7    2
 -0.008407737311207412    8    8    7    3
 -0.003056413305959538    8    8    7    4
 -0.003449192775180599    8    8    7    5
 0.0005012922889462763    8    8    7    6
 -0.9433381112148101    8    8    7    7
 0.0002099981167337098    8    8    8    1
 0.004022033507464581    8    8    8    2
 -0.01186317639668235    8    8    8    3
 -0.002814577541998658    8    8    8    4
 -0.0006150220832395152    8    8    8    5
 -0.03969550704230533    8    8    8    6
 0.01069861570692354    8    8    8    7
 -0.7188394024140858    8    8    8    8
 -0.004129084064601597    9    1    1    1
 -9.092844732493094e-06    9    1    2    1
 -0.003672241163878564    9    1    2    2
 -6.952048378297166e-06    9    1    3    1
 1.884877852422275e-05    9    1    3    2
 -0.003447342689073744    9    1    3    3
 -0.0001751686971191562    9    1    4    1
 -1.301295861860953e-05    9    1    4    2
 2.676104861891154e-05    9    1    4    3
 -0.003558429722824186    9    1    4    4
 7.526509792478496e-06    9    1    5    1
 -0.000335586211301833    9    1    5    2
 5.307084662186457e-05    9    1    5    3
 -3.607220001680995e-05    9    1    5    4
 -0.004371633766957997    9    1    5    5
 2.502702863565994e-05    9    1    6    1
 2.219085055537051e-05    9    1    6    2
 -0.0002725547633874677    9    1    6    3
 -2.492885576688721e-05    9    1    6    4
 -1.578029936902959e-05    9    1    6    5
 -0.004431392120570941    9    1    6    6
 4.731786769045855e-06    9    1    7    1
 5.042459786340182e-05    9    1    7    2
 -4.002173388159558e-05    9    1    7    3
 -1.454885606383394e-05    9    1    7    4
 -1.641852858207109e-05    9    1    7    5
 2.386205211045831e-06    9    1    7    6
 -0.004490390868549196    9    1    7    7
 9.996136216521407e-07    9    1    8    1
 1.914531207867756e-05    9    1    8    2
 -5.646999557247853e-05    9    1    8    3