 &FCI NORB=  21,NELEC=24,MS2=0,
  ORBSYM=1,1,1,1,1,1,1,1,1,1,1,1,1,1,1,1,1,1,1,1,1,
  ISYM=1,
 &END
 -5.559351007759335    1    1    1    1
 -0.003032189125554231    2    1    1    1
 -1.653820901107145e-06    2    1    2    1
 -5.538771798435363    2    2    1    1
 -0.003020964783964942    2    2    2    1
 -5.518268767761706    2    2    2    2
 -0.0007161728606858254    3    1    1    1
 -3.906160192376451e-07    3    1    2    1
 -0.0007135217830345316    3    1    2    2
 -9.225961189765496e-08    3    1    3    1
 0.0007247358995640878    3    2    1    1
 3.952864840682868e-07    3    2    2    1
 0.000722053123865854    3    2    2    2
 9.336272915778867e-08    3    2    3    1
 -9.447903601890613e-08    3    2    3    2
 -5.51956836023473    3    3    1    1
 -0.003010490817416972    3    3    2    1
 -5.499136415479899    3    3    2    2
 -0.0007110479364916802    3    3    3    1
 0.000719549698368929    3    3    3    2
 -5.480070396847152    3    3    3    3
 0.0001373665450333937    4    1    1    1
 7.492265616597295e-08    4    1    2    1
 0.0001368580513476361    4    1    2    2
 1.76959849058707e-08    4    1    3    1
 -1.790756986666895e-08    4    1    3    2
 0.0001363835517244345    4    1    3    3
 -3.394203328414091e-09    4    1    4    1
 7.146414947068437e-05    4    2    1    1
 3.897807793632049e-08    4    2    2    1
 7.119960857571485e-05    4    2    2    2
 9.206233657657043e-09    4    2    3    1
 -9.316309507724755e-09    4    2    3    2
 7.095275289486879e-05    4    2    3    3
 -1.765814623384779e-09    4    2    4    1
 -9.186548306662892e-10    4    2    4    2
 -0.002201808025718653    4    3    1    1
 -1.200913261757667e-06    4    3    2    1
 -0.002193657529700307    4    3    2    2
 -2.83643747304247e-07    4    3    3    1
 2.870351805325552e-07    4    3    3    2
 -0.002186051914531762    4    3    3    3
 5.440468876647534e-08    4    3    4    1
 2.830372423669278e-08    4    3    4    2
 -8.720367854789202e-07    4    3    4    3
 -5.529906439101314    4    4    1    1
 -0.003016129427080767    4    4    2    1
 -5.509436225582971    4    4    2    2
 -0.0007123797199149431    4    4    3    1
 0.0007208974054801118    4    4    3    2
 -5.490334496548352    4    4    3    3
 0.0001366389963211903    4    4    4    1
 7.108564646680946e-05    4    4    4    2
 -0.002190146360985815    4    4    4    3
 -5.500617820773149    4    4    4    4
 -0.0009818421296287256    5    1    1    1
 -5.355177293734687e-07    5    1    2    1
 -0.0009782076164129635    5    1    2    2
 -1.264839521260468e-07    5    1    3    1
 1.279962783520313e-07    5    1    3    2
 -0.0009748160794093023    5    1    3    3
 2.426043272455106e-08    5    1    4    1
 1.262134961635314e-08    5    1    4    2
 -3.888633543692637e-07    5    1    4    3
 -0.0009766418970913254    5    1    4    4
 -1.734040477330311e-07    5    1    5    1
 -0.0001575815669249051    5    2    1    1
 -8.594836212869435e-08    5    2    2    1
 -0.0001569982427119212    5    2    2    2
 -2.030014680062376e-08    5    2    3    1
 2.054286885301577e-08    5    2    3    2
 -0.0001564539151676135    5    2    3    3
 3.893698271361889e-09    5    2    4    1
 2.025673974824078e-09    5    2    4    2
 -6.241094657489872e-08    5    2    4    3
 -0.0001567469512907989    5    2    4    4
 -2.783062646056817e-08    5    2    5    1
 -4.466699476175392e-09    5    2    5    2
 -0.0004853711279577997    5    3    1    1
 -2.647318102436175e-07    5    3    2    1
 -0.0004835744157105693    5    3    2    2
 -6.252701596181682e-08    5    3    3    1
 6.327463053617303e-08    5    3    3    2
 -0.0004818978181280388    5    3    3    3
 1.199308243240653e-08    5    3    4    1
 6.239331675711518e-09    5    3    4    2
 -1.92233597691438e-07    5    3    4    3
 -0.0004828004063966199    5    3    4    4
 -8.572184437950456e-08    5    3    5    1
 -1.375799851043256e-08    5    3    5    2
 -4.23763729840219e-08    5    3    5    3
 -0.002176121868144343    5    4    1    1
 -1.186903481227182e-06    5    4    2    1
 -0.002168066455313563    5    4    2    2
 -2.803347767299566e-07    5    4    3    1
 2.836866456996e-07    5    4    3    2
 -0.00216054956678571    5    4    3    3
 5.377000699913543e-08    5    4    4    1
 2.797353472547368e-08    5    4    4    2
 -8.618636577599907e-07    5    4    4    3
 -0.002164596247678004    5    4    4    4
 -3.843268982886939e-07    5    4    5    1
 -6.168286429752169e-08    5    4    5    2
 -1.899910123039026e-07    5    4    5    3
 -8.51809209103213e-07    5    4    5    4
 -5.514372874465905    5    5    1    1
 -0.003007657088186829    5    5    2    1
 -5.49396016198999    5    5    2    2
 -0.0007103786378810082    5    5    3    1
 0.0007188723971790669    5    5    3    2
 -5.474912089910666    5    5    3    3
 0.0001362551759609852    5    5    4    1
 7.088596614746066e-05    5    5    4    2
 -0.002183994217105105    5    5    4    3
 -5.485166528170892    5    5    4    4
 -0.0009738984998564882    5    5    5    1
 -0.0001563066474762474    5    5    5    2
 -0.0004814442150394439    5    5    5    3
 -0.002158515874331262    5    5    5    4
 -5.469758638410066    5    5    5    5
 -0.002472543599531463    6    1    1    1
 -1.348578243124869e-06    6    1    2    1
 -0.002463390913862509    6    1    2    2
 -3.185207446652596e-07    6    1    3    1
 3.223291904607149e-07    6    1    3    2
 -0.002454850107904097    6    1    3    3
 6.109432040501861e-08    6    1    4    1
 3.178396635200891e-08    6    1    4    2
 -9.792629272352142e-07    6    1    4    3
 -0.002459448009834978    6    1    4    4
 -4.366782147727876e-07    6    1    5    1
 -7.00850322565526e-08    6    1    5    2
 -2.158707507682542e-07    6    1    5    3
 -9.678389059029317e-07    6    1    5    4
 -0.002452539394825138    6    1    5    5
 -1.099673656700445e-06    6    1    6    1
 -0.01794323633568263    6    2    1    1
 -9.786625456527522e-06    6    2    2    1
 -0.01787681534229939    6    2    2    2
 -2.311503425228977e-06    6    2    3    1
 2.339141297011097e-06    6    2    3    2
 -0.01781483475686581    6    2    3    3
 4.433611726819033e-07    6    2    4    1
 2.306560822822125e-07    6    2    4    2
 -7.106506086073826e-06    6    2    4    3
 -0.01784820170781047    6    2    4    4
 -3.168971585292729e-06    6    2    5    1
 -5.086067228953027e-07    6    2    5    2
 -1.566572941213504e-06    6    2    5    3
 -7.023602021326783e-06    6    2    5    4
 -0.01779806592379545    6    2    5    5
 -7.980326137844239e-06    6    2    6    1
 -5.791318622421817e-05    6    2    6    2
 -0.008379423028612042    6    3    1    1
 -4.570316814015516e-06    6    3    2    1
 -0.008348404677678768    6    3    2    2
 -1.079463295791492e-06    6    3    3    1
 1.092370076649597e-06    6    3    3    2
 -0.008319459980345875    6    3    3    3
 2.070479790189868e-07    6    3    4    1
 1.077155119291911e-07    6    3    4    2
 -3.318711275747742e-06    6    3    4    3
 -0.008335042219352795    6    3    4    4
 -1.479897660714124e-06    6    3    5    1
 -2.375174024688075e-07    6    3    5    2
 -7.315835969623195e-07    6    3    5    3
 -3.279995393265173e-06    6    3    5    4
 -0.008311628999169231    6    3    5    5
 -3.726781911817391e-06    6    3    6    1
 -2.704523739357245e-05    6    3    6    2
 -1.263002285598322e-05    6    3    6    3
 0.002401943269716279    6    4    1    1
 1.310071310926004e-06    6    4    2    1
 0.002393051927316273    6    4    2    2
 3.094257909380215e-07    6    4    3    1
 -3.131254914197569e-07    6    4    3    2
 0.002384754993181866    6    4    3    3
 -5.934984998547213e-08    6    4    4    1
 -3.087641571976811e-08    6    4    4    2
 9.513013229776122e-07    6    4    4    3
 0.002389221607885763    6    4    4    4
 4.24209425145836e-07    6    4    5    1
 6.808384352391092e-08    6    4    5    2
 2.097068367307278e-07    6    4    5    3
 9.402035000085951e-07    6    4    5    4
 0.00238251025956855    6    4    5    5
 1.068273877595705e-06    6    4    6    1
 7.752458100463082e-06    6    4    6    2
 3.620368406238176e-06    6    4    6    3
 -1.037770679146342e-06    6    4    6    4
 0.04878363918185072    6    5    1    1
 2.660764179590682e-05    6    5    2    1
 0.04860305538332687    6    5    2    2
 6.284459890870469e-06    6    5    3    1
 -6.359601071621179e-06    6    5    3    2
 0.04843454405908724    6    5    3    3
 -1.205399687700073e-06    6    5    4    1
 -6.271022062373176e-07    6    5    4    2
 1.932099774316387e-05    6    5    4    3
 0.04852526132240754    6    5    4    4
 8.615723691217492e-06    6    5    5    1
 1.382787719617789e-06    6    5    5    2
 4.2591608161691e-06    6    5    5    3
 1.909560016683554e-05    6    5    5    4
 0.04838895335924345    6    5    5    5
 2.169671867320218e-05    6    5    6    1
 0.0001574529771429946    6    5    6    2
 7.352994063684006e-05    6    5    6    3
 -2.107719653635263e-05    6    5    6    4
 -0.0004280793654697087    6    5    6    5
 -1.353008497392807    6    6    1    1
 -0.0007379598170452986    6    6    2    1
 -1.348000026971331    6    6    2    2
 -0.0001742987562320838    6    6    3    1
 0.0001763827880461651    6    6    3    2
 -1.343326385204811    6    6    3    3
 3.343161862387805e-05    6    6    4    1
 1.739260596384113e-05    6    6    4    2
 -0.0005358656009068429    6    6    4    3
 -1.345842417837699    6    6    4    4
 -0.0002389560836564793    6    6    5    1
 -3.83514548342579e-05    6    6    5    2
 -0.0001181273245023518    6    6    5    3
 -0.0005296142256267511    6    6    5    4
 -1.342061932504577    6    6    5    5
 -0.0006017559415966069    6    6    6    1
 -0.004366939809884539    6    6    6    2
 -0.002039344258913874    6    6    6    3
 0.0005845735679660596    6    6    6    4
 0.01187273087356137    6    6    6    5
 -0.3292887949442442    6    6    6    6
 0.004344743592687402    7    1    1    1
 2.3697162234726e-06    7    1    2    1
 0.004328660530522752    7    1    2    2
 5.597033616654023e-07    7    1    3    1
 -5.663955471828721e-07    7    1    3    2
 0.004313652660905724    7    1    3    3
 -1.073546922204478e-07    7    1    4    1
 -5.585065686373594e-08    7    1    4    2
 1.720756847106898e-06    7    1    4    3
 0.004321732075544874    7    1    4    4
 7.673291892849708e-07    7    1    5    1
 1.231531346495195e-07    7    1    5    2
 3.793272083965985e-07    7    1    5    3
 1.700682603118327e-06    7    1    5    4
 0.004309592285247933    7    1    5    5
 1.932342092936907e-06    7    1    6    1
 1.402299674777213e-05    7    1    6    2
 6.548686072019206e-06    7    1    6    3
 -1.877166528347084e-06    7    1    6    4
 -3.812538612285724e-05    7    1    6    5
 0.00105740310185384    7    1    6    6
 -3.395503694559197e-06    7    1    7    1
 -0.01729849786379671    7    2    1    1
 -9.434971283124379e-06    7    2    2    1
 -0.01723446351733568    7    2    2    2
 -2.228446213126434e-06    7    2    3    1
 2.255090997658985e-06    7    2    3    2
 -0.01717471002556522    7    2    3    3
 4.274302670401921e-07    7    2    4    1
 2.223681208890882e-07    7    2    4    2
 -6.851154276140056e-06    7    2    4    3
 -0.0172068780313162    7    2    4    4
 -3.055103726723282e-06    7    2    5    1
 -4.903314064933071e-07    7    2    5    2
 -1.51028265860657e-06    7    2    5    3
 -6.771229129967728e-06    7    2    5    4
 -0.0171585437321709    7    2    5    5
 -7.693576123353643e-06    7    2    6    1
 -5.583224282639905e-05    7    2    6    2
 -2.607344475245074e-05    7    2    6    3
 7.473895867009534e-06    7    2    6    4
 0.0001517953583066878    7    2    6    5
 -0.004210026416605324    7    2    6    6
 1.351912078441315e-05    7    2    7    1
 -5.382607213074429e-05    7    2    7    2
 -0.005099464600235448    7    3    1    1
 -2.781357227740865e-06    7    3    2    1
 -0.005080587765636956    7    3    2    2
 -6.569288655491256e-07    7    3    3    1
 6.647835438323788e-07    7    3    3    2
 -0.00506297289419418    7    3    3    3
 1.260031670381305e-07    7    3    4    1
 6.555241788188116e-08    7    3    4    2
 -2.0196677756081e-06    7    3    4    3
 -0.005072455775764532    7    3    4    4
 -9.006211653254679e-07    7    3    5    1
 -1.445459408951967e-07    7    3    5    2
 -4.452197534463974e-07    7    3    5    3
 -1.996106455035883e-06    7    3    5    4
 -0.005058207194794708    7    3    5    5
 -2.268007280121583e-06    7    3    6    1
 -1.645891730523253e-05    7    3    6    2
 -7.686251694696844e-06    7    3    6    3
 2.203247224108745e-06    7    3    6    4
 4.474810831899099e-05    7    3    6    5
 -0.001241083523354146    7    3    6    6
 3.985333201139066e-06    7    3    7    1
 -1.58675135587874e-05    7    3    7    2
 -4.677621393712903e-06    7    3    7    3
 0.000374778655030798    7    4    1    1
 2.044123065242567e-07    7    4    2    1
 0.0003733913261175368    7    4    2    2
 4.828015016911398e-08    7    4    3    1
 -4.88574197441505e-08    7    4    3    2
 0.0003720967435789    7    4    3    3
 -9.260442257017633e-09    7    4    4    1
 -4.817691450696943e-09    7    4    4    2
 1.484329104895253e-07    7    4    4    3
 0.0003727936758804963    7    4    4    4
 6.619000532278258e-08    7    4    5    1
 1.062321980161224e-08    7    4    5    2
 3.272085865290384e-08    7    4    5    3
 1.467013012468113e-07    7    4    5    4
 0.0003717464945721443    7    4    5    5
 1.666843060357316e-07    7    4    6    1
 1.209627161767804e-06    7    4    6    2
 5.648912774556132e-07    7    4    6    3
 -1.619248482112591e-07    7    4    6    4
 -3.288705220189116e-06    7    4    6    5
 9.121185264078035e-05    7    4    6    6
 -2.928969870490959e-07    7    4    7    1
 1.166162696760511e-06    7    4    7    2
 3.4377582591672e-07    7    4    7    3
 -2.526536641968721e-08    7    4    7    4
 -0.0008037012145651028    7    5    1    1
 -4.383558583721176e-07    7    5    2    1
 -0.0008007261306919342    7    5    2    2
 -1.035352862534487e-07    7    5    3    1
 1.047732229725159e-07    7    5    3    2
 -0.0007979499385457407    7    5    3    3
 1.985873151917642e-08    7    5    4    1
 1.033139005744613e-08    7    5    4    2
 -3.183097778930454e-07    7    5    4    3
 -0.0007994444882746123    7    5    4    4
 -1.419424157590484e-07    7    5    5    1
 -2.278116574288865e-08    7    5    5    2
 -7.016886764480905e-08    7    5    5    3
 -3.145963955196333e-07    7    5    5    4
 -0.0007971988404019412    7    5    5    5
 -3.57449330188909e-07    7    5    6    1
 -2.594007972529351e-06    7    5    6    2
 -1.211391843409544e-06    7    5    6    3
 3.472428203387546e-07    7    5    6    4
 7.052526456170189e-06    7    5    6    5
 -0.0001956009921218807    7    5    6    6
 6.281085143829032e-07    7    5    7    1
 -2.500799773908989e-06    7    5    7    2
 -7.372166080394387e-07    7    5    7    3
 5.4180795531874e-08    7    5    7    4
 -1.161890374239495e-07    7    5    7    5
 -0.04673004054916947    7    6    1    1
 -2.548756511184713e-05    7    6    2    1
 -0.04655705861569613    7    6    2    2
 -6.019908937815786e-06    7    6    3    1
 6.091886971481696e-06    7    6    3    2
 -0.04639564095299659    7    6    3    3
 1.154657119248594e-06    7    6    4    1
 6.00703678886018e-07    7    6    4    2
 -1.850766000918199e-05    7    6    4    3
 -0.04648253937764392    7    6    4    4
 -8.253035734997254e-06    7    6    5    1
 -1.324577815274588e-06    7    6    5    2
 -4.079866959148005e-06    7    6    5    3
 -1.829175078105368e-05    7    6    5    4
 -0.04635196944164371    7    6    5    5
 -2.078337246639572e-05    7    6    6    1
 -0.000150824828362066    7    6    6    2
 -7.04346204006833e-05    7    6    6    3
 2.018992976589993e-05    7    6    6    4
 0.0004100589140570816    7    6    6    5
 -0.01137293577223135    7    6    6    6
 3.652045786974994e-05    7    6    7    1
 -0.000145405372944916    7    6    7    2
 -4.286438960509197e-05    7    6    7    3
 3.1502637128162e-06    7    6    7    4
 -6.755642932713678e-06    7    6    7    5
 -0.0003927970525119168    7    6    7    6
 -2.541139788972314    7    7    1    1
 -0.001385992074233172    7    7    2    1
 -2.531733178818405    7    7    2    2
 -0.0003273575188058469    7    7    3    1
 0.000331271622948151    7    7    3    2
 -2.522955423855894    7    7    3    3
 6.278927032504598e-05    7    7    4    1
 3.266575423128034e-05    7    7    4    2
 -0.001006430781942602    7    7    4    3
 -2.52768088614686    7    7    4    4
 -0.0004487930513123755    7    7    5    1
 -7.202941299489415e-05    7    7    5    2
 -0.0002218596890087123    7    7    5    3
 -0.0009946898220810783    7    7    5    4
 -2.520580604278613    7    7    5    5
 -0.001130182086356621    7    7    6    1
 -0.008201725656807235    7    7    6    2
 -0.00383017464393188    7    7    6    3
 0.001097911177943474    7    7    6    4
 0.02229865435782826    7    7    6    5
 -0.6184505570423123    7    7    6    6
 0.001985951381888067    7    7    7    1
 -0.007907020288841852    7    7    7    2
 -0.002330928984341449    7    7    7    3
 0.0001713086565368961    7    7    7    4
 -0.0003673661065700372    7    7    7    5
 -0.02135996903488284    7    7    7    6
 -1.161536916464801    7    7    7    7
 -0.001167863504381723    8    1    1    1
 -6.369777718972345e-07    8    1    2    1
 -0.001163540390499374    8    1    2    2
 -1.504478032878868e-07    8    1    3    1
 1.522466572509532e-07    8    1    3    2
 -0.001159506287489533    8    1    3    3
 2.885685297502655e-08    8    1    4    1
 1.501261063062906e-08    8    1    4    2
 -4.625380252663397e-07    8    1    4    3
 -0.001161678027499625    8    1    4    4
 -2.062574549902761e-07    8    1    5    1
 -3.310346130654734e-08    8    1    5    2
 -1.019628416394887e-07    8    1    5    3
 -4.571420849926112e-07    8    1    5    4
 -0.001158414861852173    8    1    5    5
 -5.194119653274493e-07    8    1    6    1
 -3.769369992593017e-06    8    1    6    2
 -1.760281430194489e-06    8    1    6    3
 5.045808189448247e-07    8    1    6    4
 1.024807243361527e-05    8    1    6    5
 -0.0002842290841175497    8    1    6    6
 9.127086004668421e-07    8    1    7    1
 -3.633928548054718e-06    8    1    7    2
 -1.071254286730463e-06    8    1    7    3
 7.873046922578579e-08    8    1    7    4
 -1.688350520785246e-07    8    1    7    5
 -9.816669039152623e-06    8    1    7    6
 -0.0005338220981065844    8    1    7    7
 -2.453353211486598e-07    8    1    8    1
 0.01499610860253182    8    2    1    1
 8.179198860937848e-06    8    2    2    1
 0.0149405970765379    8    2    2    2
 1.931845278709687e-06    8    2    3    1
 -1.954943705271708e-06    8    2    3    2
 0.0148887966335731    8    2    3    3
 -3.705403067373195e-07    8    2    4    1
 -1.927714485295787e-07    8    2    4    2
 5.939281802771478e-06    8    2    4    3
 0.01491668315363785    8    2    4    4
 2.648476627200397e-06    8    2    5    1
 4.250694529029913e-07    8    2    5    2
 1.309267599262566e-06    8    2    5    3
 5.869994505022404e-06    8    2    5    4
 0.01487478203569587    8    2    5    5
 6.669579289258259e-06    8    2    6    1
 4.840110300559035e-05    8    2    6    2
 2.260313075901072e-05    8    2    6    3
 -6.47913795684279e-06    8    2    6    4
 -0.0001315917541771865    8    2    6    5
 0.003649681831338185    8    2    6    6
 -1.17197576974645e-05    8    2    7    1
 4.666194889728936e-05    8    2    7    2
 1.37555849330548e-05    8    2    7    3
 -1.010949192614097e-06    8    2    7    4
 2.167949222990806e-06    8    2    7    5
 0.000126052260794107    8    2    7    6
 0.006854614539800846    8    2    7    7
 3.15026123016837e-06    8    2    8    1
 -4.04513535671795e-05    8    2    8    2
 0.003985796178860271    8    3    1    1
 2.173938615019517e-06    8    3    2    1
 0.003971041842648548    8    3    2    2
 5.134626411502454e-07    8    3    3    1
 -5.196019418693741e-07    8    3    3    2
 0.003957273870362894    8    3    3    3
 -9.848542564289667e-08    8    3    4    1
 -5.123647229474943e-08    8    3    4    2
 1.578593976750615e-06    8    3    4    3
 0.003964685792219542    8    3    4    4
 7.039351541314573e-07    8    3    5    1
 1.129786563991799e-07    8    3    5    2
 3.479885303955058e-07    8    3    5    3
 1.560178196101819e-06    8    3    5    4
 0.003953548948641671    8    3    5    5
 1.772698794755534e-06    8    3    6    1
 1.286446614421915e-05    8    3    6    2
 6.007656692639159e-06    8    3    6    3
 -1.722081640988679e-06    8    3    6    4
 -3.497560099560746e-05    8    3    6    5
 0.0009700441816584011    8    3    6    6
 -3.114979137976884e-06    8    3    7    1
 1.240221863834655e-05    8    3    7    2
 3.656079008050205e-06    8    3    7    3
 -2.686988695362513e-07    8    3    7    4
 5.76216401066939e-07    8    3    7    5
 3.350326626235726e-05    8    3    7    6
 0.001821879073060697    8    3    7    7
 8.373038303748268e-07    8    3    8    1
 -1.075151259244475e-05    8    3    8    2
 -2.857630532276847e-06    8    3    8    3
 -0.0007301884003056675    8    4    1    1
 -3.982603947694781e-07    8    4    2    1
 -0.0007274854409287805    8    4    2    2
 -9.406513723574339e-08    8    4    3    1
 9.518984255684604e-08    8    4    3    2
 -0.0007249631810821699    8    4    3    3
 1.804229623807811e-08    8    4    4    1
 9.386400122690227e-09    8    4    4    2
 -2.891946699956196e-07    8    4    4    3
 -0.0007263210275752742    8    4    4    4
 -1.289592495573149e-07    8    4    5    1
 -2.069742171523104e-08    8    4    5    2
 -6.375067287231172e-08    8    4    5    3
 -2.858209426877786e-07    8    4    5    4
 -0.0007242807842633582    8    4    5    5
 -3.24754211976905e-07    8    4    6    1
 -2.356739665830039e-06    8    4    6    2
 -1.100588447861425e-06    8    4    6    3
 3.154812695386865e-07    8    4    6    4
 6.40744709329684e-06    8    4    6    5
 -0.0001777097918322334    8    4    6    6
 5.706567851633745e-07    8    4    7    1
 -2.272057019826066e-06    8    4    7    2
 -6.697849971452081e-07    8    4    7    3
 4.922499518445487e-08    8    4    7    4
 -1.055614771162906e-07    8    4    7    5
 -6.137718864520765e-06    8    4    7    6
 -0.0003337639222407413    8    4    7    7
 -1.533920745154674e-07    8    4    8    1
 1.969651589908533e-06    8    4    8    2
 5.235111313756445e-07    8    4    8    3
 -9.590599679652949e-08    8    4    8    4
 -0.002863666692209872    8    5    1    1
 -1.561905156053274e-06    8    5    2    1
 -0.002853066174953304    8    5    2    2
 -3.68906436047704e-07    8    5    3    1
 3.733173266687798e-07    8    5    3    2
 -0.002843174328535563    8    5    3    3
 7.075861896235629e-08    8    5    4    1
 3.681176170390114e-08    8    5    4    2
 -1.134169131808813e-06    8    5    4    3
 -0.002848499556618906    8    5    4    4
 -5.05754826364035e-07    8    5    5    1
 -8.117154032533926e-08    8    5    5    2
 -2.500185957952944e-07    8    5    5    3
 -1.120937984181524e-06    8    5    5    4
 -0.002840498091772447    8    5    5    5
 -1.273627216761895e-06    8    5    6    1
 -9.242706239132406e-06    8    5    6    2
 -4.316308611109641e-06    8    5    6    3
 1.2372604155528e-06    8    5    6    4
 2.51288473159668e-05    8    5    6    5
 -0.0006969456260007463    8    5    6    6
 2.238012583700091e-06    8    5    7    1
 -8.910596234826334e-06    8    5    7    2
 -2.626775482140914e-06    8    5    7    3
 1.930515180395988e-07    8    5    7    4
 -4.139929994393938e-07    8    5    7    5
 -2.407102204187113e-05    8    5    7    6
 -0.001308961669046005    8    5    7    7
 -6.015759418460214e-07    8    5    8    1
 7.724616894650887e-06    8    5    8    2
 2.053115866116157e-06    8    5    8    3
 -3.761259539242735e-07    8    5    8    4
 -1.475097886898392e-06    8    5    8    5
 -0.03238595726778969    8    6    1    1
 -1.766399482799484e-05    8    6    2    1
 -0.03226607323944881    8    6    2    2
 -4.172059585759682e-06    8    6    3    1
 4.221943504009328e-06    8    6    3    2
 -0.03215420375538632    8    6    3    3
 8.00227769620209e-07    8    6    4    1
 4.163138624821416e-07    8    6    4    2
 -1.282661600846268e-05    8    6    4    3
 -0.03221442815566917    8    6    4    4
 -5.719713903563101e-06    8    6    5    1
 -9.179902268266522e-07    8    6    5    2
 -2.82752583658015e-06    8    6    5    3
 -1.267698149169526e-05    8    6    5    4
 -0.03212393749231721    8    6    5    5
 -1.440378404698843e-05    8    6    6    1
 -0.0001045281876251743    8    6    6    2
 -4.881426550591898e-05    8    6    6    3
 1.399250235937858e-05    8    6    6    4
 0.0002841887212564153    8    6    6    5
 -0.007881940773007703    8    6    6    6
 2.53102709535495e-05    8    6    7    1
 -0.0001007722685313349    8    6    7    2
 -2.970689247743596e-05    8    6    7    3
 2.183270221607959e-06    8    6    7    4
 -4.681955349580777e-06    8    6    7    5
 -0.0002722254979466474    8    6    7    6
 -0.01480339062999856    8    6    7    7
 -6.80338001589176e-06    8    6    8    1
 8.735971729557552e-05    8    6    8    2
 2.321922550789154e-05    8    6    8    3
 -4.253707005858969e-06    8    6    8    4
 -1.66822686665509e-05    8    6    8    5
 -0.0001886641492302238    8    6    8    6
 0.2352562028387356    8    7    1    1
 0.0001283137724117954    8    7    2    1
 0.2343853481946909    8    7    2    2
 3.03064346082725e-05    8    7    3    1
 -3.066879849004106e-05    8    7    3    2
 0.2335727123409332    8    7    3    3
 -5.812968408816774e-06    8    7    4    1
 -3.024163147842369e-06    8    7    4    2
 9.317436419959363e-05    8    7    4    3
 0.2340101909558663    8    7    4    4
 4.154881583861118e-05    8    7    5    1
 6.668411658196214e-06    8    7    5    2
 2.053955009703747e-05    8    7    5    3
 9.208739777347453e-05    8    7    5    4
 0.2333528538984331    8    7    5    5
 0.0001046311372977033    8    7    6    1
 0.0007593076316064589    8    7    6    2
 0.0003545937719959245    8    7    6    3
 -0.0001016435285843299    8    7    6    4
 -0.00206438731761295    8    7    6    5
 0.05725553955145306    8    7    6    6
 -0.0001838574104237984    8    7    7    1
 0.0007320241007575847    8    7    7    2
 0.0002157950949108124    8    7    7    3
 -1.585958561790654e-05    8    7    7    4
 3.40103900062378e-05    8    7    7    5
 0.001977484760856759    8    7    7    6
 0.1075339363896364    8    7    7    7
 4.942072070846235e-05    8    7    8    1
 -0.0006345934196752285    8    7    8    2
 -0.0001686677587040395    8    7    8    3
 3.089953308813239e-05    8    7    8    4
 0.000121182373853488    8    7    8    5
 0.001370483231133224    8    7    8    6
 -0.00995538524134441    8    7    8    7
 -2.375104859104912    8    8    1    1
 -0.00129543306687729    8    8    2    1
 -2.366312865220431    8    8    2    2
 -0.000305968383539721    8    8    3    1
 0.0003096267449599781    8    8    3    2
 -2.358108637907172    8    8    3    3
 5.868669708602824e-05    8    8    4    1
 3.053141426449553e-05    8    8    4    2
 -0.0009406718398247832    8    8    4    3
 -2.362525344338474    8    8    4    4
 -0.0004194694685944922    8    8    5    1
 -6.732310026589378e-05    8    8    5    2
 -0.0002073636514177348    8    8    5    3
 -0.000929698019754459    8    8    5    4
 -2.3558889861029    8    8    5    5
 -0.001056337387115772    8    8    6    1
 -0.007665835049714584    8    8    6    2
 -0.00357991577145863    8    8    6    3
 0.001026175019932191    8    8    6    4
 0.02084168787038572    8    8    6    5
 -0.5780417628033682    8    8    6    6
 0.001856191775650424    8    8    7    1
 -0.007390385365877236    8    8    7    2
 -0.002178628968372023    8    8    7    3
 0.0001601155608649392    8    8    7    4
 -0.0003433628596787335    8    8    7    5
 -0.01996433508508312    8    8    7    6
 -1.085643531417445    8    8    7    7
 -0.0004989428226706417    8    8    8    1
 0.006406742506423179    8    8    8    2
 0.001702839748488609    8    8    8    3
 -0.0003119562005002847    8    8    8    4
 -0.001223435733061559    8    8    8    5
 -0.0138361554012567    8    8    8    6
 0.100507802028866    8    8    8    7
 -1.014708926252416    8    8    8    8
 -0.0005997279618387373    9    1    1    1
 -3.271044770585374e-07    9    1    2    1
 -0.0005975079316145453    9    1    2    2
 -7.725881842392361e-08    9    1    3    1
 7.818257622341618e-08    9    1    3    2
 -0.0005954363159104308    9    1    3    3
 1.481873656884526e-08    9    1    4    1
 7.709361874565972e-09    9    1    4    2
 -2.375251783494047e-07    9    1    4    3
 -0.0005965515602904544    9    1    4    4
 -1.059185107088513e-07    9    1    5    1
 -1.699947922398699e-08    9    1    5    2
 -5.236054296611116e-08    9    1    5    3
 -2.347542241663781e-07    9    1    5    4
 -0.0005948758407602645    9    1    5    5
 -2.667314100935095e-07    9    1    6    1
 -1.935668487449385e-06    9    1    6    2
 -9.039498112855308e-07    9    1    6    3
 2.591152347798616e-07    9    1    6    4
 5.262648905739718e-06    9    1    6    5
 -0.0001459589486901144    9    1    6    6
 4.686993528412826e-07    9    1    7    1
 -1.866115820398236e-06    9    1    7    2
 -5.501166425540418e-07    9    1    7    3
 4.043012189886431e-08    9    1    7    4
 -8.670114383238328e-08    9    1    7    5
 -5.041112161487784e-06    9    1    7    6
 -0.0002741313840879284    9    1    7    7