 &FCI NORB=  28,NELEC=34,MS2=0,
  ORBSYM=1,1,1,1,1,1,1,1,1,1,1,1,1,1,1,1,1,1,1,1,1,1,1,1,1,1,1,1,
  ISYM=1,
 &END
 -1.645774566991432    1    1    1    1
 0.0006801539186693062    2    1    1    1
 -2.810891372117286e-07    2    1    2    1
 -1.638627950314684    2    2    1    1
 0.0006772004161449897    2    2    2    1
 -1.631512367128762    2    2    2    2
 -0.0005591479975873087    3    1    1    1
 2.310806773320204e-07    3    1    2    1
 -0.0005567199515569049    3    1    2    2
 -1.899692032414015e-07    3    1    3    1
 0.0001572779623437347    3    2    1    1
 -6.499870915084295e-08    3    2    2    1
 0.0001565949980233883    3    2    2    2
 5.343481390057381e-08    3    2    3    1
 -1.503022220364678e-08    3    2    3    2
 -1.632266327436321    3    3    1    1
 0.0006745713302322544    3    3    2    1
 -1.625178368981674    3    3    2    2
 -0.0005545586053037767    3    3    3    1
 0.0001559870514044834    3    3    3    2
 -1.618868961228957    3    3    3    3
 0.0001322382919934432    4    1    1    1
 -5.465049363496021e-08    4    1    2    1
 0.0001316640600167051    4    1    2    2
 4.492764541109834e-08    4    1    3    1
 -1.263731347271735e-08    4    1    3    2
 0.0001311529024374023    4    1    3    3
 -1.062537131154991e-08    4    1    4    1
 4.962282787281505e-05    4    2    1    1
 -2.050776668338555e-08    4    2    2    1
 4.94073455483625e-05    4    2    2    2
 1.6859237830179e-08    4    2    3    1
 -4.74219094773731e-09    4    2    3    2
 4.921553208653402e-05    4    2    3    3
 -3.987203431996984e-09    4    2    4    1
 -1.496210413918062e-09    4    2    4    2
 0.0003656319302078614    4    3    1    1
 -1.511057438280674e-07    4    3    2    1
 0.0003640442089595255    4    3    2    2
 1.242225792821553e-07    4    3    3    1
 -3.494150784946971e-08    4    3    3    2
 0.0003626308851064912    4    3    3    3
 -2.937859347120135e-08    4    3    4    1
 -1.102440802142655e-08    4    3    4    2
 -8.123026754029981e-08    4    3    4    3
 -1.625750498706717    4    4    1    1
 0.0006718785152302111    4    4    2    1
 -1.618690834607322    4    4    2    2
 -0.0005523448679792077    4    4    3    1
 0.0001553643681487427    4    4    3    2
 -1.61240661332057    4    4    3    3
 0.0001306293543893248    4    4    4    1
 4.901906906299099e-05    4    4    4    2
 0.0003611833022581922    4    4    4    3
 -1.605970062398528    4    4    4    4
 0.0003658289563182361    5    1    1    1
 -1.511871693687389e-07    5    1    2    1
 0.0003642403795031017    5    1    2    2
 1.242895184355215e-07    5    1    3    1
 -3.496033659172221e-08    5    1    3    2
 0.0003628262940598348    5    1    3    3
 -2.939442455579635e-08    5    1    4    1
 -1.10303486846777e-08    5    1    4    2
 -8.127403965738602e-08    5    1    4    3
 0.0003613779311603768    5    1    4    4
 -8.131783536158615e-08    5    1    5    1
 -1.962893805107706e-05    5    2    1    1
 8.11210684775038e-09    5    2    2    1
 -1.954370128849959e-05    5    2    2    2
 -6.668885050331875e-09    5    2    3    1
 1.875833690447505e-09    5    2    3    2
 -1.946782704430591e-05    5    2    3    3
 1.57718881648824e-09    5    2    4    1
 5.918449791185063e-10    5    2    4    2
 4.360844219797398e-09    5    2    4    3
 -1.939011360708914e-05    5    2    4    4
 4.363194124446544e-09    5    2    5    1
 -2.341117773604572e-10    5    2    5    2
 -7.178108856367248e-05    5    3    1    1
 2.96651738652888e-08    5    3    2    1
 -7.146938613802297e-05    5    3    2    2
 -2.438745423583538e-08    5    3    3    1
 6.859738612164732e-09    5    3    3    2
 -7.119192151777686e-05    5    3    3    3
 5.76762379214558e-09    5    3    4    1
 2.16431865807233e-09    5    3    4    2
 1.59471767825018e-08    5    3    4    3
 -7.090773115022197e-05    5    3    4    4
 1.595577015182497e-08    5    3    5    1
 -8.561236568571544e-10    5    3    5    2
 -3.130759691349954e-09    5    3    5    3
 -9.659200034916232e-05    5    4    1    1
 3.991884968161548e-08    5    4    2    1
 -9.61725589418269e-05    5    4    2    2
 -3.281690254633226e-08    5    4    3    1
 9.230786098123322e-09    5    4    3    2
 -9.57991895316946e-05    5    4    3    3
 7.76118516022285e-09    5    4    4    1
 2.91240872435086e-09    5    4    4    2
 2.145926923323255e-08    5    4    4    3
 -9.541676964044825e-05    5    4    4    4
 2.147083287416444e-08    5    4    5    1
 -1.152040157328016e-09    5    4    5    2
 -4.212897118880774e-09    5    4    5    3
 -5.669072009362866e-09    5    4    5    4
 -1.465563589439304    5    5    1    1
 0.0006056776173412408    5    5    2    1
 -1.45919952148055    5    5    2    2
 -0.0004979217462753507    5    5    3    1
 0.0001400561532880727    5    5    3    2
 -1.453534491137229    5    5    3    3
 0.0001177583064912127    5    5    4    1
 4.418916854959127e-05    5    5    4    2
 0.0003255955310019242    5    5    4    3
 -1.447732140358055    5    5    4    4
 0.0003257709829133475    5    5    5    1
 -1.747958528707054e-05    5    5    5    2
 -6.392111770298385e-05    5    5    5    3
 -8.601525481197817e-05    5    5    5    4
 -1.30508556747031    5    5    5    5
 -0.0004031121506293703    6    1    1    1
 1.665953007251811e-07    6    1    2    1
 -0.0004013616751535252    6    1    2    2
 -1.369563950909672e-07    6    1    3    1
 3.852329408814381e-08    6    1    3    2
 -0.0003998034742118994    6    1    3    3
 3.239013614025993e-08    6    1    4    1
 1.215449871770104e-08    6    1    4    2
 8.955702480827164e-08    6    1    4    3
 -0.0003982075024518516    6    1    4    4
 8.96052839202171e-08    6    1    5    1
 -4.807865907665068e-09    6    1    5    2
 -1.758189096233003e-08    6    1    5    3
 -2.365901732551576e-08    6    1    5    4
 -0.0003589716977477467    6    1    5    5
 -9.873734182324507e-08    6    1    6    1
 0.0001053194792461457    6    2    1    1
 -4.352567961505385e-08    6    2    2    1
 0.0001048621396068882    6    2    2    2
 3.57820427588002e-08    6    2    3    1
 -1.006482505147415e-08    6    2    3    2
 0.0001044550347565961    6    2    3    3
 -8.462439709838032e-09    6    2    4    1
 -3.175556661955284e-09    6    2    4    2
 -2.339820122244867e-08    6    2    4    3
 0.0001040380616775228    6    2    4    4
 -2.341080968521111e-08    6    2    5    1
 1.2561316568851e-09    6    2    5    2
 4.593549456209854e-09    6    2    5    3
 6.181295652608178e-09    6    2    5    4
 9.378708186262982e-05    6    2    5    5
 2.579670547448692e-08    6    2    6    1
 -6.739800779007328e-09    6    2    6    2
 -9.073813547559038e-05    6    3    1    1
 3.749960635815742e-08    6    3    2    1
 -9.034411390956742e-05    6    3    2    2
 -3.082806586854098e-08    6    3    3    1
 8.671363223553254e-09    6    3    3    2
 -8.999337219186257e-05    6    3    3    3
 7.290826030868478e-09    6    3    4    1
 2.73590500698916e-09    6    3    4    2
 2.015875095095945e-08    6    3    4    3
 -8.963412848870854e-05    6    3    4    4
 2.016961378858806e-08    6    3    5    1
 -1.082221876460589e-09    6    3    5    2
 -3.957578558637308e-09    6    3    5    3
 -5.325503376542471e-09    6    3    5    4
 -8.080238338458199e-05    6    3    5    5
 -2.222518543504434e-08    6    3    6    1
 5.806684200695375e-09    6    3    6    2
 -5.002756388827733e-09    6    3    6    3
 2.615783642439144e-05    6    4    1    1
 -1.081032317839322e-08    6    4    2    1
 2.604424855290068e-05    6    4    2    2
 8.887062755290184e-09    6    4    3    1
 -2.499765942834723e-09    6    4    3    2
 2.594313732297682e-05    6    4    3    3
 -2.101787012864676e-09    6    4    4    1
 -7.88702074054968e-10    6    4    4    2
 -5.811330672946749e-09    6    4    4    3
 2.583957515504888e-05    6    4    4    4
 -5.81446219342874e-09    6    4    5    1
 3.119810945087059e-10    6    4    5    2
 1.140884061931838e-09    6    4    5    3
 1.535227117804467e-09    6    4    5    4
 2.329357459459201e-05    6    4    5    5
 6.407038915496009e-09    6    4    6    1
 -1.673941113003663e-09    6    4    6    2
 1.442186161354819e-09    6    4    6    3
 -4.157509905235891e-10    6    4    6    4
 -5.580339662015091e-06    6    5    1    1
 2.306202784239367e-09    6    5    2    1
 -5.556107577445096e-06    6    5    2    2
 -1.895907137255645e-09    6    5    3    1
 5.332835181865563e-10    6    5    3    2
 -5.534537176993592e-06    6    5    3    3
 4.483813278249795e-10    6    5    4    1
 1.682564793950927e-10    6    5    4    2
 1.239750815670605e-09    6    5    4    3
 -5.512443909653112e-06    6    5    4    4
 1.240418873520511e-09    6    5    5    1
 -6.655598143669234e-11    6    5    5    2
 -2.433886532994211e-10    6    5    5    3
 -3.275151903502515e-10    6    5    5    4
 -4.969297004208665e-06    6    5    5    5
 -1.366835268641625e-09    6    5    6    1
 3.571075158212115e-10    6    5    6    2
 -3.076664486177902e-10    6    5    6    3
 8.869356411211042e-11    6    5    6    4
 -1.892129783022769e-11    6    5    6    5
 -1.244006994386908    6    6    1    1
 0.0005141142955143078    6    6    2    1
 -1.238605014486144    6    6    2    2
 -0.0004226484196846068    6    6    3    1
 0.0001188831624590005    6    6    3    2
 -1.233796395180038    6    6    3    3
 9.995619294709528e-05    6    6    4    1
 3.750887040859469e-05    6    6    4    2
 0.00027637362228851    6    6    4    3
 -1.228871214856785    6    6    4    4
 0.0002765225502549152    6    6    5    1
 -1.483710874969073e-05    6    6    5    2
 -5.425784188727258e-05    6    6    5    3
 -7.301189752606413e-05    6    6    5    4
 -1.107789239515431    6    6    5    5
 -0.0003047041465843081    6    6    6    1
 7.960881851935553e-05    6    6    6    2
 -6.858708200577576e-05    6    6    6    3
 1.977216814661166e-05    6    6    6    4
 -4.218063463753604e-06    6    6    6    5
 -0.940319186553334    6    6    6    6
 5.022070355712975e-05    7    1    1    1
 -2.07548524614455e-08    7    1    2    1
 5.000262501541585e-05    7    1    2    2
 1.706236467290228e-08    7    1    3    1
 -4.799326761606982e-09    7    1    3    2
 4.980850050825413e-05    7    1    3    3
 -4.035242854216804e-09    7    1    4    1
 -1.514237355619798e-09    7    1    4    2
 -1.115723449995665e-08    7    1    4    3
 4.960967041960071e-05    7    1    4    4
 -1.116324673886376e-08    7    1    5    1
 5.989757642241638e-10    7    1    5    2
 2.190395235207799e-09    7    1    5    3
 2.947498589915136e-09    7    1    5    4
 4.472157733236955e-05    7    1    5    5
 1.230094098126871e-08    7    1    6    1
 -3.213817039159239e-09    7    1    6    2
 2.768868285148322e-09    7    1    6    3
 -7.982046722028929e-10    7    1    6    4
 1.702837007783302e-10    7    1    6    5
 3.796079228658188e-05    7    1    6    6
 -1.532481493126785e-09    7    1    7    1
 -2.552554262920103e-05    7    2    1    1
 1.054901333002737e-08    7    2    2    1
 -2.541470043228317e-05    7    2    2    2
 -8.672242441162831e-09    7    2    3    1
 2.439340972304452e-09    7    2    3    2
 -2.531603328841706e-05    7    2    3    3
 2.05098208903636e-09    7    2    4    1
 7.696373693296734e-10    7    2    4    2
 5.670857727604935e-09    7    2    4    3
 -2.521497445123616e-05    7    2    4    4
 5.673913552186931e-09    7    2    5    1
 -3.044398090952659e-10    7    2    5    2
 -1.113306325696811e-09    7    2    5    3
 -1.49811722212936e-09    7    2    5    4
 -2.273051645610499e-05    7    2    5    5
 -6.252166360821204e-09    7    2    6    1
 1.633478187779488e-09    7    2    6    2
 -1.407325275059051e-09    7    2    6    3
 4.057013531075829e-10    7    2    6    4
 -8.654964099279958e-11    7    2    6    5
 -1.929423032967103e-05    7    2    6    6
 7.789102682874658e-10    7    2    7    1
 -3.958946380525445e-10    7    2    7    2
 3.12560761062642e-05    7    3    1    1
 -1.291728713778856e-08    7    3    2    1
 3.11203496226796e-05    7    3    2    2
 1.061917757011113e-08    7    3    3    1
 -2.986977718242238e-09    7    3    3    2
 3.099953151500342e-05    7    3    3    3
 -2.511431517783905e-09    7    3    4    1
 -9.424224409035631e-10    7    3    4    2
 -6.943976208328588e-09    7    3    4    3
 3.087578477425738e-05    7    3    4    4
 -6.94771807141266e-09    7    3    5    1
 3.727871325239689e-10    7    3    5    2
 1.363245739808732e-09    7    3    5    3
 1.834447423554953e-09    7    3    5    4
 2.783356117467767e-05    7    3    5    5
 7.655789749178338e-09    7    3    6    1
 -2.000197186670208e-09    7    3    6    2
 1.723272509521246e-09    7    3    6    3
 -4.967820881754132e-10    7    3    6    4
 1.059802020720229e-10    7    3    6    5
 2.362582219529743e-05    7    3    6    6
 -9.537771235347781e-10    7    3    7    1
 4.847737467048545e-10    7    3    7    2
 -5.936063864120126e-10    7    3    7    3
 1.968370748519786e-06    7    4    1    1
 -8.134741566987456e-10    7    4    2    1
 1.959823289165674e-06    7    4    2    2
 6.687492835402465e-10    7    4    3    1
 -1.881067715307438e-10    7    4    3    2
 1.952214694016597e-06    7    4    3    3
 -1.581589550687815e-10    7    4    4    1
 -5.934963682312337e-11    7    4    4    2
 -4.373012018661241e-10    7    4    4    3
 1.94442166638635e-06    7    4    4    4
 -4.375368480111432e-10    7    4    5    1
 2.347650052393081e-11    7    4    5    2
 8.585124467194153e-11    7    4    5    3
 1.155254625035731e-10    7    4    5    4
 1.752835751266658e-06    7    4    5    5
 4.82128100400938e-10    7    4    6    1
 -1.259636564784322e-10    7    4    6    2
 1.08524153445802e-10    7    4    6    3
 -3.12851596415547e-11    7    4    6    4
 6.674168855091184e-12    7    4    6    5
 1.487850783343621e-06    7    4    6    6
 -6.006470499337393e-11    7    4    7    1
 3.052892690112636e-11    7    4    7    2
 -3.738272978269851e-11    7    4    7    3
 -2.35420055780245e-12    7    4    7    4
 -2.860433570208695e-05    7    5    1    1
 1.182139486714233e-08    7    5    2    1
 -2.848012414440715e-05    7    5    2    2
 -9.718255070238129e-09    7    5    3    1
 2.733564926600311e-09    7    5    3    2
 -2.836955614799227e-05    7    5    3    3
 2.29836368401682e-09    7    5    4    1
 8.624680776028922e-10    7    5    4    2
 6.354854841501379e-09    7    5    4    3
 -2.825630798138607e-05    7    5    4    4
 6.358279247928946e-09    7    5    5    1
 -3.411601714777294e-10    7    5    5    2
 -1.247589065670154e-09    7    5    5    3
 -1.678814376852575e-09    7    5    5    4
 -2.547218418966836e-05    7    5    5    5
 -7.006278692999582e-09    7    5    6    1
 1.83050206313062e-09    7    5    6    2
 -1.577071453273197e-09    7    5    6    3
 4.546354946360413e-10    7    5    6    4
 -9.698892681015719e-11    7    5    6    5
 -2.162142640728546e-05    7    5    6    6
 8.728594380755157e-10    7    5    7    1
 -4.436459312154358e-10    7    5    7    2
 5.432452971417218e-10    7    5    7    3
 3.421120899914935e-11    7    5    7    4
 -4.971568022547647e-10    7    5    7    5
 -1.28247334464893e-05    7    6    1    1
 5.30011393085056e-09    7    6    2    1
 -1.276904328347633e-05    7    6    2    2
 -4.357172707573577e-09    7    6    3    1
 1.225591879056368e-09    7    6    3    2
 -1.271947020138962e-05    7    6    3    3
 1.030469713315436e-09    7    6    4    1
 3.866869455226967e-10    7    6    4    2
 2.849194621452167e-09    7    6    4    3
 -1.266869546691816e-05    7    6    4    4
 2.850729951650595e-09    7    6    5    1
 -1.529589187925679e-10    7    6    5    2
 -5.593556649811764e-10    7    6    5    3
 -7.526952247203559e-10    7    6    5    4
 -1.142043555685741e-05    7    6    5    5
 -3.14126003922632e-09    7    6    6    1
 8.207042903359663e-10    7    6    6    2
 -7.070788577280513e-10    7    6    6    3
 2.038354987420472e-10    7    6    6    4
 -4.348491594268784e-11    7    6    6    5
 -9.693951060227546e-06    7    6    6    6
 3.913459045563294e-10    7    6    7    1
 -1.989083358450172e-10    7    6    7    2
 2.435636402977685e-10    7    6    7    3
 1.533857107767448e-11    7    6    7    4
 -2.228998965905346e-10    7    6    7    5
 -9.993700917512208e-11    7    6    7    6
 -1.239203073151461    7    7    1    1
 0.0005121289653733022    7    7    2    1
 -1.23382195381344    7    7    2    2
 -0.0004210162988624601    7    7    3    1
 0.0001184240771393386    7    7    3    2
 -1.22903190371836    7    7    3    3
 9.957019698398905e-05    7    7    4    1
 3.736402423016912e-05    7    7    4    2
 0.0002753063637288625    7    7    4    3
 -1.224125742724139    7    7    4    4
 0.0002754547165873828    7    7    5    1
 -1.477981300929961e-05    7    7    5    2
 -5.40483170212483e-05    7    7    5    3
 -7.272995103657636e-05    7    7    5    4
 -1.103511343751083    7    7    5    5
 -0.0003035274854184881    7    7    6    1
 7.930139702129379e-05    7    7    6    2
 -6.832222261092374e-05    7    7    6    3
 1.969581492765156e-05    7    7    6    4
 -4.201774773466956e-06    7    7    6    5
 -0.9366880017378447    7    7    6    6
 3.781420094344413e-05    7    7    7    1
 -1.921972273990627e-05    7    7    7    2
 2.353458750814451e-05    7    7    7    3
 1.482105222421915e-06    7    7    7    4
 -2.153793199774652e-05    7    7    7    5
 -9.656516401446741e-06    7    7    7    6
 -0.933070839291941    7    7    7    7
 0.001092802898497924    8    1    1    1
 -4.516257503634008e-07    8    1    2    1
 0.001088057507740623    8    1    2    2
 3.712771874764564e-07    8    1    3    1
 -1.044333875163058e-07    8    1    3    2
 0.001083833356960765    8    1    3    3
 -8.780691577158947e-08    8    1    4    1
 -3.294981659014563e-08    8    1    4    2
 -2.427815091620069e-07    8    1    4    3
 0.001079506812691191    8    1    4    4
 -2.429123355271309e-07    8    1    5    1
 1.303371727020077e-08    8    1    5    2
 4.766301728864038e-08    8    1    5    3
 6.413759215287918e-08    8    1    5    4
 0.0009731418692415783    8    1    5    5
 2.676685710563653e-07    8    1    6    1
 -6.993268367178471e-08    8    1    6    2
 6.02505953371792e-08    8    1    6    3
 -1.736893985138263e-08    8    1    6    4
 3.705374648242914e-09    8    1    6    5
 0.0008260271342647253    8    1    6    6
 -3.334680916364044e-08    8    1    7    1
 1.694909347269575e-08    8    1    7    2
 -2.075419759769261e-08    8    1    7    3
 -1.307008446018912e-09    8    1    7    4
 1.899342813517381e-08    8    1    7    5
 8.515689915181845e-09    8    1    7    6
 0.0008228373055023043    8    1    7    7
 -7.256268257617803e-07    8    1    8    1
 -0.0003203381710557571    8    2    1    1
 1.323870636433443e-07    8    2    2    1
 -0.0003189471335701976    8    2    2    2
 -1.088341322615291e-07    8    2    3    1
 3.061302308047363e-08    8    2    3    2
 -0.0003177088894760953    8    2    3    3
 2.573923151465372e-08    8    2    4    1
 9.658726196293722e-09    8    2    4    2
 7.116762292450582e-08    8    2    4    3
 -0.0003164406303232213    8    2    4    4
 7.120597263843312e-08    8    2    5    1
 -3.820631477215901e-09    8    2    5    2
 -1.397167211601338e-08    8    2    5    3
 -1.880093747409864e-08    8    2    5    4
 -0.0002852614016664051    8    2    5    5
 -7.846287799855018e-08    8    2    6    1
 2.049967840974103e-08    8    2    6    2
 -1.766152482013139e-08    8    2    6    3
 5.091434542145809e-09    8    2    6    4
 -1.086172940725201e-09    8    2    6    5
 -0.0002421370054897355    8    2    6    6
 9.775098393963742e-09    8    2    7    1
 -4.968363106978679e-09    8    2    7    2
 6.083770192514085e-09    8    2    7    3
 3.831291953266424e-10    8    2    7    4
 -5.567628013490304e-09    8    2    7    5
 -2.496242036379971e-09    8    2    7    6
 -0.0002412019568060806    8    2    7    7
 2.127062167871482e-07    8    2    8    1
 -6.235151878846695e-08    8    2    8    2
 -4.894319745370789e-05    8    3    1    1
 2.022689389422789e-08    8    3    2    1
 -4.873066635853153e-05    8    3    2    2
 -1.662833501053493e-08    8    3    3    1
 4.677242266645484e-09    8    3    3    2
 -4.854147995906558e-05    8    3    3    3
 3.932595001639222e-09    8    3    4    1
 1.475718431614605e-09    8    3    4    2
 1.087341858019853e-08    8    3    4    3
 -4.834770767792596e-05    8    3    4    4
 1.087927788074777e-08    8    3    5    1
 -5.837391159815048e-10    8    3    5    2
 -2.134676316839779e-09    8    3    5    3
 -2.872520599330815e-09    8    3    5    4
 -4.358395710903345e-05    8    3    5    5
 -1.198803164172652e-08    8    3    6    1
 3.132064483101619e-09    8    3    6    2
 -2.698434263254852e-09    8    3    6    3
 7.779000713452193e-10    8    3    6    4
 -1.659520516446188e-10    8    3    6    5
 -3.699515181558226e-05    8    3    6    6
 1.493498477713154e-09    8    3    7    1
 -7.590964753440218e-10    8    3    7    2
 9.295150959183414e-10    8    3    7    3
 5.853678877965434e-11    8    3    7    4
 -8.506557814042802e-10    8    3    7    5
 -3.813909109742326e-10    8    3    7    6
 -3.68522894392312e-05    8    3    7    7
 3.249853844621136e-08    8    3    8    1
 -9.526441028070178e-09    8    3    8    2
 -1.455507105916487e-09    8    3    8    3
 0.0001278733071560847    8    4    1    1
 -5.284656398258826e-08    8    4    2    1
 0.0001273180297032906    8    4    2    2
 4.34446521870181e-08    8    4    3    1
 -1.22201749808479e-08    8    4    3    2
 0.0001268237446580287    8    4    3    3
 -1.027464396948583e-08    8    4    4    1
 -3.855591912648692e-09    8    4    4    2
 -2.840885079601586e-08    8    4    4    3
 0.0001263174781345156    8    4    4    4
 -2.842415932054858e-08    8    4    5    1
 1.525128213119471e-09    8    4    5    2
 5.57724330536965e-09    8    4    5    3
 7.505000245597605e-09    8    4    5    4
 0.0001138712839460971    8    4    5    5
 3.132098702315636e-08    8    4    6    1
 -8.183107449388217e-09    8    4    6    2
 7.050166955521413e-09    8    4    6    3
 -2.032410221133425e-09    8    4    6    4
 4.335809423404779e-10    8    4    6    5
 9.665679108673642e-05    8    4    6    6
 -3.902045626634706e-09    8    4    7    1
 1.983282290548694e-09    8    4    7    2
 -2.428532984159972e-09    8    4    7    3
 -1.529383685778109e-10    8    4    7    4
 2.22249819543346e-09    8    4    7    5
 9.964554757918041e-10    8    4    7    6
 9.628353626313274e-05    8    4    7    7
 -8.490854306743717e-08    8    4    8    1
 2.488961864085269e-08    8    4    8    2
 3.802786023507356e-09    8    4    8    3
 -9.935493603431982e-09    8    4    8    4
 0.0006072359625243197    8    5    1    1
 -2.509541268600344e-07    8    5    2    1
 0.0006045990991631182    8    5    2    2
 2.063069750367919e-07    8    5    3    1
 -5.803032612311666e-08    8    5    3    2
 0.0006022518723501406    8    5    3    3
 -4.879152232131195e-08    8    5    4    1
 -1.830916958548839e-08    8    5    4    2
 -1.349059959501178e-07    8    5    4    3
 0.0005998477487176444    8    5    4    4
 -1.349786920181079e-07    8    5    5    1
 7.242423919920859e-09    8    5    5    2
 2.648482925865517e-08    8    5    5    3
 3.563922877444745e-08    8    5    5    4
 0.0005407441181331644    8    5    5    5
 1.48734948092043e-07    8    5    6    1
 -3.885937760570964e-08    8    5    6    2
 3.347934774196153e-08    8    5    6    3
 -9.651369815342252e-09    8    5    6    4
 2.058959345854316e-09    8    5    6    5
 0.0004589971189094539    8    5    6    6
 -1.852976578615513e-08    8    5    7    1
 9.418074478896205e-09    8    5    7    2
 -1.153245033663207e-08    8    5    7    3
 -7.262632015678499e-10    8    5    7    4
 1.0554046508434e-08    8    5    7    5
 4.731899200952848e-09    8    5    7    6
 0.0004572246320854344    8    5    7    7
 -4.032078470697439e-07    8    5    8    1
 1.181941084372922e-07    8    5    8    2
 1.80584086125173e-08    8    5    8    3
 -4.718098839869689e-08    8    5    8    4
 -2.240498313550366e-07    8    5    8    5
 -0.000429336992188363    8    6    1    1
 1.774333153055166e-07    8    6    2    1
 -0.0004274726378777177    8    6    2    2
 -1.458662226813654e-07    8    6    3    1
 4.102946335693312e-08    8    6    3    2
 -0.0004258130667026546    8    6    3    3
 3.449730702812627e-08    8    6    4    1
 1.294522110748994e-08    8    6    4    2
 9.538324161281518e-08    8    6    4    3
 -0.0004241132674929138    8    6    4    4
 9.543464026680159e-08    8    6    5    1
 -5.120646163652029e-09    8    6    5    2
 -1.87256974788906e-08    8    6    5    3
 -2.519817703537448e-08    8    6    5    4
 -0.0003823249404691555    8    6    5    5
 -1.051607928187772e-07    8    6    6    1
 2.747493450518283e-08    8    6    6    2
 -2.367106585751055e-08    8    6    6    3
 6.82385488137261e-09    8    6    6    4
 -1.455756027545559e-09    8    6    6    5
 -0.0003245269625278772    8    6    6    6
 1.31011903107832e-08    8    6    7    1
 -6.658906946429828e-09    8    6    7    2
 8.153844379552767e-09    8    6    7    3
 5.134933991755052e-10    8    6    7    4
 -7.462078768376312e-09    8    6    7    5
 -3.345617676910272e-09    8    6    7    6
 -0.0003232737525589639    8    6    7    7
 2.850820026666896e-07    8    6    8    1
 -8.356735460775578e-08    8    6    8    2
 -1.276792435872306e-08    8    6    8    3
 3.335860340577125e-08    8    6    8    4
 1.584110405688087e-07    8    6    8    5
 -1.120021274835449e-07    8    6    8    6
 0.0002828817685727811    8    7    1    1
 -1.169073500549833e-07    8    7    2    1
 0.0002816533818876436    8    7    2    2
 9.61084085413614e-08    8    7    3    1
 -2.703351299604806e-08    8    7    3    2
 0.000280559922815595    8    7    3    3
 -2.272960262141376e-08    8    7    4    1
 -8.529353650122066e-09    8    7    4    2
 -6.284615714593253e-08    8    7    4    3
 0.0002794399582762727    8    7    4    4
 -6.288002271636582e-08    8    7    5    1
 3.373893862781562e-09    8    7    5    2
 1.23379967647033e-08    8    7    5    3
 1.66025872782226e-08    8    7    5    4
 0.0002519064448142133    8    7    5    5
 6.92883948933985e-08    8    7    6    1
 -1.810269835970141e-08    8    7    6    2
 1.559640351427644e-08    8    7    6    3
 -4.496104860397814e-09    8    7    6    4
 9.591692474099838e-10    8    7    6    5
 0.0002138244846816317    8    7    6    6
 -8.632118715493626e-09    8    7    7    1
 4.38742388389691e-09    8    7    7    2
 -5.372408995084125e-09    8    7    7    3
 -3.383307833989072e-10    8    7    7    4
 4.916618128962791e-09    8    7    7    5
 2.204362220434775e-09    8    7    7    6
 0.0002129987690809513    8    7    7    7
 -1.878349701281802e-07    8    7    8    1
 5.506089970467652e-08    8    7    8    2
 8.412536281090861e-09    8    7    8    3
 -2.197933301867118e-08    8    7    8    4
 -1.043739443208752e-07    8    7    8    5
 7.379601684207741e-08    8    7    8    6
 -4.862275587181571e-08    8    7    8    7
 -1.081292709102433    8    8    1    1
 0.000446868901777291    8    8    2    1
 -1.076597300227909    8    8    2    2
 -0.0003673666279857786    8    8    3    1
 0.0001033334196527627    8    8    3    2
 -1.072417641254926    8    8    3    3
 8.688206991682001e-05    8    8    4    1
 3.260276532405622e-05    8    8    4    2
 0.0002402243589603545    8    8    4    3
 -1.068136667274413    8    8    4    4
 0.0002403538073677871    8    8    5    1
 -1.289643674640857e-05    8    8    5    2
 -4.716099596630793e-05    8    8    5    3
 -6.346204870944072e-05    8    8    5    4
 -0.9628920362304771    8    8    5    5
 -0.0002648492923444295    8    8    6    1
 6.919610213900918e-05    8    8    6    2
 -5.961599255155811e-05    8    8    6    3
 1.718599763228435e-05    8    8    6    4
 -3.666346966269194e-06    8    8    6    5
 -0.817326819894889    8    8    6    6
 3.299557648505213e-05    8    8    7    1
 -1.67705733788886e-05    8    8    7    2
 2.053559939903368e-05    8    8    7    3
 1.293242089088634e-06    8    8    7    4
 -1.87933756321962e-05    8    8    7    5
 -8.425996518600036e-06    8    8    7    6
 -0.8141705887128222    8    8    7    7
 0.0007179839999544499    8    8    8    1
 -0.000210465841286513    8    8    8    2
 -3.215624036747591e-05    8    8    8    3
 8.401422496730706e-05    8    8    8    4
 0.0003989609708106302    8    8    8    5
 -0.000282079313116314    8    8    8    6
 0.0001858565565604241    8    8    8    7
 -0.7104216739084929    8    8    8    8
 6.538038945360515e-05    9    1    1    1
 -2.70199388074691e-08    9    1    2    1
 6.509648144398295e-05    9    1    2    2
 2.22128319258754e-08    9    1    3    1
 -6.248057684656432e-09    9    1    3    2
 6.484375826446218e-05    9    1    3    3
 -5.253326430371436e-09    9    1    4    1
 -1.971326983163768e-09    9    1    4    2
 -1.452517159586515e-08    9    1    4    3
 6.458490907059406e-05    9    1    4    4
 -1.453299869690869e-08    9    1    5    1
 7.797833555577132e-10    9    1    5    2
 2.851590746280549e-09    9    1    5    3
 3.837234289308298e-09    9    1    5    4
 5.822128994357217e-05    9    1    5    5
 1.601411878044043e-08    9    1    6    1
 -4.183943966731479e-09    9    1    6    2
 3.604682411961817e-09    9    1    6    3
 -1.039151756863511e-09    9    1    6    4
 2.216857567880032e-10    9    1    6    5
 4.941968566491296e-05    9    1    6    6
 -1.995078319384606e-09    9    1    7    1
 1.014033119470648e-09    9    1    7    2
 -1.24168550760555e-09    9    1    7    3
 -7.819591377120747e-11    9    1    7    4