 &FCI NORB=   7,NELEC=10,MS2=0,
  ORBSYM=1,1,1,1,1,1,1,
  ISYM=1,
 &END
 411.1383951120084    1    1    1    1
 -7.267839235059263    2    1    1    1
 0.1168310760410189    2    1    2    1
 420.6506524610103    2    2    1    1
 -6.458812423175931    2    2    2    1
 437.0903560260078    2    2    2    2
 -6.046190642785637    3    1    1    1
 -6.046190642785637    3    1    2    2
 0.02326567833220922    3    1    3    1
 -10.79850297015167    3    2    1    1
 -10.79850297015167    3    2    2    2
 0.03629260800174265    3    2    3    1
 0.2789331412053958    3    2    3    2
 423.0589265392882    3    3    1    1
 -6.44191584810517    3    3    2    1
 439.7317666816824    3    3    2    2
 -6.046190642785637    3    3    3    1
 -10.79850297015167    3    3    3    2
 442.5100318653306    3    3    3    3
 -2.95557461663193    4    1    1    1
 0.04850067673637747    4    1    2    1
 -2.599103465249991    4    1    2    2
 -2.580471210910036    4    1    3    3
 0.0540674662263407    4    1    4    1
 -1.709181677724258    4    2    1    1
 -0.01901816343150843    4    2    2    1
 -1.996640832754716    4    2    2    2
 -2.010434732502681    4    2    3    3
 0.03283516698030535    4    2    4    1
 0.2493006804346824    4    2    4    2
 5.499395095624699    4    3    1    1
 5.499395095624699    4    3    2    2
 0.008237748937537591    4    3    3    1
 -0.03691358437340232    4    3    3    2
 5.499395095624699    4    3    3    3
 0.1030078867300188    4    3    4    3
 421.6515667819208    4    4    1    1
 -6.458352089792124    4    4    2    1
 438.0452545172081    4    4    2    2
 -6.046190642785637    4    4    3    1
 -10.79850297015167    4    4    3    2
 440.7145534033346    4    4    3    3
 -2.547963606585632    4    4    4    1
 -1.805529184840181    4    4    4    2
 5.499395095624699    4    4    4    3
 439.2924138385409    4    4    4    4
 -11.55407898547963    5    1    1    1
 -11.55407898547963    5    1    2    2
 -11.55407898547963    5    1    3    3
 -11.55407898547963    5    1    4    4
 0.05202039617821663    5    1    5    1
 -6.912026683848865    5    2    1    1
 -6.912026683848865    5    2    2    2
 -6.912026683848865    5    2    3    3
 -6.912026683848865    5    2    4    4
 0.06495418813463012    5    2    5    1
 0.2895591708562059    5    2    5    2
 3.78313150721198    5    3    1    1
 3.78313150721198    5    3    2    2
 3.78313150721198    5    3    3    3
 3.78313150721198    5    3    4    4
 0.05783373691353533    5    3    5    3
 -13.22524594355765    5    4    1    1
 -13.22524594355765    5    4    2    2
 -13.22524594355765    5    4    3    3
 -13.22524594355765    5    4    4    4
 0.02831925440487804    5    4    5    1
 0.1002379652557428    5    4    5    2
 0.1103854489889647    5    4    5    4
 420.9507892062388    5    5    1    1
 -6.456121566845136    5    5    2    1
 437.2073776855838    5    5    2    2
 -6.046190642785637    5    5    3    1
 -10.79850297015167    5    5    3    2
 439.7799435900907    5    5    3    3
 -2.578011449624038    5    5    4    1
 -1.845395493185066    5    5    4    2
 5.499395095624699    5    5    4    3
 438.2191259718417    5    5    4    4
 -11.55407898547963    5    5    5    1
 -6.912026683848865    5    5    5    2
 3.78313150721198    5    5    5    3
 -13.22524594355765    5    5    5    4
 437.5530613646247    5    5    5    5
 -11.70572883143201    6    1    1    1
 0.06572510300439395    6    1    2    1
 -11.27420292551733    6    1    2    2
 -11.27400337053832    6    1    3    3
 -0.0009804518971276365    6    1    4    1
 -0.04256827871703791    6    1    4    2
 -11.31413932639333    6    1    4    4
 -11.28719910081479    6    1    5    5
 0.06059640921697988    6    1    6    1
 -3.680508972537198    6    2    1    1
 -0.01150020798013839    6    2    2    1
 -3.984244063515406    6    2    2    2
 -4.108448113896205    6    2    3    3
 -0.03797091356501704    6    2    4    1
 -0.04232692740750304    6    2    4    2
 -4.127445484171791    6    2    4    4
 -3.964103438850956    6    2    5    5
 0.02026748857904107    6    2    6    1
 0.2052175549787035    6    2    6    2
 1.187307763741074    6    3    1    1
 1.187307763741074    6    3    2    2
 0.007501232749333749    6    3    3    1
 -0.05592411856148868    6    3    3    2
 1.187307763741074    6    3    3    3
 0.05610225312016229    6    3    4    3
 1.187307763741074    6    3    4    4
 1.187307763741074    6    3    5    5
 0.1241014561830681    6    3    6    3
 -5.823608594356532    6    4    1    1
 0.006436228580308712    6    4    2    1
 -5.537569850981845    6    4    2    2
 -5.430125017623779    6    4    3    3
 -0.0006730776508293769    6    4    4    1
 -0.1067205355169092    6    4    4    2
 -5.593771264729139    6    4    4    4
 -5.597696203043703    6    4    5    5
 0.006222483677620951    6    4    6    1
 -0.1136371616101889    6    4    6    2
 0.1747948376854817    6    4    6    4
 -4.625355483748837    6    5    1    1
 -4.625355483748837    6    5    2    2
 -4.625355483748837    6    5    3    3
 -4.625355483748837    6    5    4    4
 0.02832664812610401    6    5    5    1
 0.1084940238600918    6    5    5    2
 -0.001778379858199664    6    5    5    4
 -4.625355483748837    6    5    5    5
 0.07442729458848561    6    5    6    5
 422.5217679143489    6    6    1    1
 -6.44730433419831    6    6    2    1
 439.1068352869975    6    6    2    2
 -6.046190642785637    6    6    3    1
 -10.79850297015167    6    6    3    2
 441.816450624202    6    6    3    3
 -2.607297721916761    6    6    4    1
 -2.103624625130052    6    6    4    2
 5.499395095624699    6    6    4    3
 440.0681272724349    6    6    4    4
 -11.55407898547963    6    6    5    1
 -6.912026683848865    6    6    5    2
 3.78313150721198    6    6    5    3
 -13.22524594355765    6    6    5    4
 439.1386746705189    6    6    5    5
 -11.25627969568052    6    6    6    1
 -4.061831723285063    6    6    6    2
 1.187307763741074    6    6    6    3
 -5.430219629686871    6    6    6    4
 -4.625355483748837    6    6    6    5
 441.3012993997436    6    6    6    6
 -8.289741790947289    7    1    1    1
 -8.289741790947289    7    1    2    2
 0.0297528859378193    7    1    3    1
 0.04367565156700455    7    1    3    2
 -8.289741790947289    7    1    3    3
 0.01079171106932798    7    1    4    3
 -8.289741790947289    7    1    4    4
 -8.289741790947289    7    1    5    5
 0.00846104407334501    7    1    6    3
 -8.289741790947289    7    1    6    6
 0.03813289167941353    7    1    7    1
 1.930112818872054    7    2    1    1
 1.930112818872054    7    2    2    2
 0.02794619974099183    7    2    3    1
 0.08206291591712485    7    2    3    2
 1.930112818872054    7    2    3    3
 0.07574960482536267    7    2    4    3
 1.930112818872054    7    2    4    4
 1.930112818872054    7    2    5    5
 0.07008537475238466    7    2    6    3
 1.930112818872054    7    2    6    6
 0.03405750325796156    7    2    7    1
 0.1241383818402867    7    2    7    2
 -10.78857938034847    7    3    1    1
 -0.01478103684948087    7    3    2    1
 -11.23454368796889    7    3    2    2
 -11.32726695621345    7    3    3    3
 0.001424638994172151    7    3    4    1
 0.1721149099213825    7    3    4    2
 -11.21937874578158    7    3    4    4
 -11.12683347935345    7    3    5    5
 -0.01406452374242195    7    3    6    1
 0.1451900598050728    7    3    6    2
 -0.1870724376311099    7    3    6    4
 -11.42470694029197    7    3    6    6
 0.3184783186919577    7    3    7    3
 -11.66866254391488    7    4    1    1
 -11.66866254391488    7    4    2    2
 0.02002298579648588    7    4    3    1
 0.1609641934438314    7    4    3    2
 -11.66866254391488    7    4    3    3
 -0.007972617079572227    7    4    4    3
 -11.66866254391488    7    4    4    4
 -11.66866254391488    7    4    5    5
 -0.08935275348492287    7    4    6    3
 -11.66866254391488    7    4    6    6
 0.02529317356943015    7    4    7    1
 0.02783176059661831    7    4    7    2
 0.1492473019790991    7    4    7    4
 -7.565944834050235    7    5    1    1
 -7.565944834050235    7    5    2    2
 -7.565944834050235    7    5    3    3
 -7.565944834050235    7    5    4    4
 0.04695694209339876    7    5    5    3
 -7.565944834050235    7    5    5    5
 -7.565944834050235    7    5    6    6
 0.04635857306579414    7    5    7    5
 -6.570051894820452    7    6    1    1
 -6.570051894820452    7    6    2    2
 0.01639320884797781    7    6    3    1
 0.1778259946452671    7    6    3    2
 -6.570051894820452    7    6    3    3
 -0.1025934131194875    7    6    4    3
 -6.570051894820452    7    6    4    4
 -6.570051894820452    7    6    5    5
 -0.1074776778650179    7    6    6    3
 -6.570051894820452    7    6    6    6
 0.02000864399313327    7    6    7    1
 -0.0268293966946174    7    6    7    2
 0.1210763101541267    7    6    7    4
 0.2151365964620546    7    6    7    6
 423.3548671640488    7    7    1    1
 -6.449298094160429    7    7    2    1
 439.9108931075504    7    7    2    2
 -6.046190642785637    7    7    3    1
 -10.79850297015167    7    7    3    2
 442.6990037025968    7    7    3    3
 -2.576269167271242    7    7    4    1
 -1.986469850809052    7    7    4    2
 5.499395095624699    7    7    4    3
 440.9509140865673    7    7    4    4
 -11.55407898547963    7    7    5    1
 -6.912026683848865    7    7    5    2
 3.78313150721198    7    7    5    3
 -13.22524594355765    7    7    5    4
 439.9805135174727    7    7    5    5
 -11.28290844804978    7    7    6    1
 -4.143282412720286    7    7    6    2
 1.187307763741074    7    7    6    3
 -5.410289206716336    7    7    6    4
 -4.625355483748837    7    7    6    5
 442.0457213097449    7    7    6    6
 -8.289741790947289    7    7    7    1
 1.930112818872054    7    7    7    2
 -11.35306595092956    7    7    7    3
 -11.66866254391488    7    7    7    4
 -7.565944834050235    7    7    7    5
 -6.570051894820452    7    7    7    6
 442.9453542984901    7    7    7    7
 -1934.29164025729    1    1  0  0
 59.00614899063845    2    1  0  0
 -2037.194328114205    2    2  0  0
 54.41571578507074    3    1  0  0
 97.18652673136503    3    2  0  0
 -2059.809543497868    3    3  0  0
 23.60334062639186    4    1  0  0
 17.04736504851712    4    2  0  0
 -49.49455586062229    4    3  0  0
 -2045.332686982298    4    4  0  0
 103.9867108693167    5    1  0  0
 62.20824015463978    5    2  0  0
 -34.04818356490782    5    3  0  0
 119.0272134920188    5    4  0  0
 -2037.47682285247    5    5  0  0
 102.0284728732091    6    1  0  0
 35.75683055518146    6    2  0  0
 -10.68576987366967    6    3  0  0
 50.3827870905955    6    4  0  0
 41.62819935373953    6    5  0  0
 -2052.885049612056    6    6  0  0
 74.6076761185256    7    1  0  0
 -17.37101536984849    7    2  0  0
 100.2167376699409    7    3  0  0
 105.0179628952339    7    4  0  0
 68.09350350645212    7    5  0  0
 59.13046705338407    7    6  0  0
 -2060.361058971455    7    7  0  0
 5864.94260420026  0  0  0  0
